  MPI-parallelism will be employed.
------------------------------------------------------------
          Invoking FHI-aims ...
          Version 072414
          Compiled on 2014/08/06 at 00:00:04 on host theobook58.

          When using FHI-aims, please cite the following reference:

          Volker Blum, Ralf Gehrke, Felix Hanke, Paula Havu,
          Ville Havu, Xinguo Ren, Karsten Reuter, and Matthias Scheffler,
          'Ab Initio Molecular Simulations with Numeric Atom-Centered Orbitals: FHI-aims',
          Computer Physics Communications 180, 2175-2196 (2009)

          For any questions about FHI-aims, please visit the aimsclub website
          with its forums and wiki. Contributions to both the forums and the
          wiki are warmly encouraged - they are for you, and everyone is welcome there.

------------------------------------------------------------

  Date     :  20140812, Time     :  111509.151
  Time zero on CPU 1             :   0.160000000000000E-01  s.
  Internal wall clock time zero  :           177074109.151  s.

  Using        4 parallel tasks.
  Task        0 on host theobook58 reporting.
  Task        1 on host theobook58 reporting.
  Task        2 on host theobook58 reporting.
  Task        3 on host theobook58 reporting.

  Performing system and environment tests:
  | Environment variable OMP_NUM_THREADS correctly set to 1.
  | Stacksize not measured: no C compiler
  | Checking for scalapack...
  | No scalapack compiled in.

  Obtaining array dimensions for all initial allocations:
  
  -----------------------------------------------------------------------
  Parsing control.in (first pass over file, find array dimensions only).
  The contents of control.in will be repeated verbatim below
  unless switched off by setting 'verbatim_writeout .false.' .
  in the first line of control.in .
  -----------------------------------------------------------------------
  
  xc                      hf
  total_energy_method     mp2
  relativistic            none
  occupation_type         integer 0.0001
  mixer                   pulay
  n_max_pulay             10
  charge_mix_param        0.6
  sc_iter_limit           600
  sc_accuracy_rho         1E-6
  sc_accuracy_eev         1E-4
  sc_accuracy_etot        1E-6
  override_illconditioning .true.
  charge                  0
  ################################################################################
  #
  #  FHI-aims code project
  # Igor Ying Zhang and Xinguo Ren, Fritz Haber Institute Berlin, 2012
  #
  #  Suggested "NAO-VCC-4Z" defaults for H atom (to be pasted into control.in file)
  #
  #  Please cite:
  #
  #  Igor Ying Zhang, Xinguo Ren, Patrick Rinke, Volker Blum, and Matthias Scheffler,
  #  "Numeric atom-centered-orbital basis sets with valence-correlation consistency from H to Ar"
  #  New Journal of Physics 15, 123033 (2013).
  #  http://dx.doi.org/10.1088/1367-2630/15/12/123033
  #
  ################################################################################
    species        H
  #     set basis set reference for FHI-aims output
      cite_reference NAO-VCC-2013
  #     global species definitions
      nucleus             1
      mass                1.00794
  #
      l_hartree           6
  #
      cut_pot             4.0  2.0  1.0
      basis_dep_cutoff    0e-4
  #
      radial_base         24 7.0
  radial_multiplier               6
      angular_grids       specified
        division   0.1930   50
        division   0.3175  110
        division   0.4293  194
        division   0.5066  302
        division   0.5626  434
        division   0.5922  590
  #      division   0.6227  974
  #      division   0.6868 1202
        outer_grid  770
  #      outer_grid  434
  ################################################################################
  #
  #  Definition of "minimal" basis
  #
  ################################################################################
  #     valence basis states
      valence      1  s   1.
  #     ion occupancy
      ion_occ      1  s   0.5
  ################################################################################
  
  
   basis_acc              1e-04
  #============================================
  # Optimization in      H for       NAO-VCC-4Z
  #============================================
  # (sp) correlation set
   hydro     1     s      1.15655525
   hydro     1     s      1.68684502
   hydro     1     s      2.46027686
   hydro     2     p      2.92145897
   hydro     2     p      4.14501835
   hydro     2     p      5.88102632
  # polarization set
   hydro     3     d      6.41446874
   hydro     3     d      7.67536483
   hydro     4     f     10.80870049
  # (sp) enhanced minimal set
   hydro     1     s      3.58833335
  
  -----------------------------------------------------------------------
  Completed first pass over input file control.in .
  -----------------------------------------------------------------------
  
  
  -----------------------------------------------------------------------
  Parsing geometry.in (first pass over file, find array dimensions only).
  The contents of geometry.in will be repeated verbatim below
  unless switched off by setting 'verbatim_writeout .false.' .
  in the first line of geometry.in .
  -----------------------------------------------------------------------
  
  atom             0.0             0.0             0.0    H
  atom             0.0             0.0             0.8    H
  
  -----------------------------------------------------------------------
  Completed first pass over input file geometry.in .
  -----------------------------------------------------------------------
  

  Basic array size parameters:
  | Number of species                 :        1
  | Number of atoms                   :        2
  | Max. basis fn. angular momentum   :        3
  | Max. atomic/ionic basis occupied n:        1
  | Max. number of basis fn. types    :        2
  | Max. radial fns per species/type  :       10
  | Max. logarithmic grid size        :     1131
  | Max. radial integration grid size :      149
  | Max. angular integration grid size:      770
  | Max. angular grid division number :        8
  | Radial grid for Hartree potential :     1131
  | Number of spin channels           :        1

------------------------------------------------------------
          Reading file control.in.
------------------------------------------------------------
 
  Hartree-Fock calculation starts ...... 
  Attention: this version of Hartree-Fock employs an auxiliary basis. 
 
  MP2 correlation energy calculation will be started after the DFT/HF calculation.
  Non-relativistic treatment of kinetic energy.
  Occupation type: Integer occupation.
  Using pulay charge density mixing.
  Pulay mixing - number of memorized iterations:   10
  Charge density mixing - mixing parameter:     0.6000
  Maximum number of s.-c. iterations  :   600
  Convergence accuracy of self-consistent charge density: 0.1000E-05
  Convergence accuracy of sum of eigenvalues: 0.1000E-03
  Convergence accuracy of total energy: 0.1000E-05
  override_illconditioning: Explicitly overriding any built-in checks for an ill-conditioned overlap matrix.
  *** WARNING: If you use this flag, you should really know what you are doing.
  *** DO NOT keep this flag set by default in all your control.in files.
  Charge =   0.000000E+00: Neutral system requested explicitly.
 
  Reading configuration options for species H                   .
  | Found nuclear charge :   1.0000
  | Found atomic mass :    1.00794000000000      amu
  | Found l_max for Hartree potential  :   6
  | Found cutoff potl. onset [A], width [A], scale factor :    4.00000    2.00000    1.00000
  | Threshold for basis-dependent cutoff potential is   0.000000E+00
  | Found data for basic radial integration grid :    24 points, outermost radius =    7.000 A
  | Found multiplier for basic radial grid :   6
  | Found angular grid specification: user-specified.
  | Specified grid contains     7 separate shells.
  | Check grid settings after all constraints further below.
  | Found free-atom valence shell :  1 s   1.000
  | No ionic wave fns used. Skipping ion_occ.
  | Found basis singularity cutoff : 0.1000E-03
  | Found hydrogenic basis function :  1 s   1.157
  | Found hydrogenic basis function :  1 s   1.687
  | Found hydrogenic basis function :  1 s   2.460
  | Found hydrogenic basis function :  2 p   2.921
  | Found hydrogenic basis function :  2 p   4.145
  | Found hydrogenic basis function :  2 p   5.881
  | Found hydrogenic basis function :  3 d   6.414
  | Found hydrogenic basis function :  3 d   7.675
  | Found hydrogenic basis function :  4 f  10.809
  | Found hydrogenic basis function :  1 s   3.588
  Species H                   : Missing cutoff potential type.
  Defaulting to exp(1/x)/(1-x)^2 type cutoff potential.
  Species H : No 'logarithmic' tag. Using default grid for free atom:
  | Default logarithmic grid data [bohr] : 0.1000E-03 0.1000E+03 0.1012E+01
  Species H                   : Using default innermost maximum threshold i_radial=  2 for radial functions.
  Species H                   : Default cutoff onset for free atom density etc. is infinite
  since the product basis is used (hybrid functionals, Hartree-Fock, GW etc.).
  Species H                   : Basic radial grid will be enhanced according to radial_multiplier =   6, to contain   149 grid points.
 
  Finished reading input file 'control.in'. Consistency checks are next.
 
  Species H: Using default value for prodbas_acc =   1.000000E-02.
  Species H: Using default value max_l_prodbas =     5.
  Target number of points in a grid batch is not set. Defaulting to  100
  Method for grid partitioning is not set. Defaulting to parallel hash+maxmin partitioning.
  Batch size limit is not set. Defaulting to    200
  By default, will store active basis functions for each batch.
  If in need of memory, prune_basis_once .false. can be used to disable this option.
  communication_type for Hartree potential was not specified.
  Defaulting to calc_hartree .
  Pulay mixer: Number of initial linear mixing iterations not set.
  Defaulting to    0 iterations.
  Work space size for distributed Hartree potential not set.
  Defaulting to   0.200000E+03 MB.
  Algorithm-dependent basis array size parameters:
  | n_max_pulay                         :       10
  Calculation of forces was not defined in control.in. No forces will be calculated.
  Geometry relaxation not requested: no relaxation will be performed.
  No accuracy limit for integral partition fn. given. Defaulting to 0.1000E-14.
  No threshold value for u(r) in integrations given. Defaulting to 0.1000E-05.
  No accuracy for occupation numbers given. Defaulting to 0.1000E-07.
  No threshold value for occupation numbers given. Defaulting to 0.0000E+00.
  No accuracy for fermi level given. Defaulting to 0.1000E-19.
  Maximum # of iterations to find E_F not set. Defaulting to  200.
  Preferred method for the eigenvalue solver ('KS_method') not specified in 'control.in'.
  Calling blacs routine to test compilation state
  The best choice would be 'elpa', but your version of FHI-aims is compiled without scalapack support.
  Defaulting to 'lapack_fast' instead (serial solution, time will not improve with more CPUs).
  Will not use alltoall communication since running on < 1024 CPUs.
  Threshold for basis singularities not set.
  Default threshold for basis singularities: 0.1000E-04
  partition_type (choice of integration weights) for integrals was not specified.
  | Using a version of the partition function of Stratmann and coworkers ('stratmann_smoother').
  | At each grid point, the set of atoms used to build the partition table is smoothly restricted to
  | only those atoms whose free-atom density would be non-zero at that grid point.
  Partitioning for Hartree potential was not defined. Using partition_type for integrals.
  | Adjusted default value of keyword multip_moments_threshold to:       0.10000000E-11
  | This value may affect high angular momentum components of the Hartree potential in periodic systems.
  Spin handling was not defined in control.in. Defaulting to unpolarized case.
  Threshold for auxiliary basis singularities not set.
  Default threshold for auxiliary basis singularities: 0.1000E-04
  No q(lm)/r^(l+1) cutoff set for long-range Hartree potential.
  | Using default value of  0.100000E-09 .
  | Verify using the multipole_threshold keyword.
  Defaulting to new monopole extrapolation.
  Density update method: automatic selection selected.
  Default to 1D ("use_logsbt") integrations for auxiliary 2-center integrals.
  Default onset of logarithmic r-grid for SBT is-38.000000000000
  Default onset of logarithmic k-grid for SBT is-25.000000000000
  Default range of logarithmic r- and k-grid for SBT is 45.000000000000
  Default number of logarithmic r- and k-grid for SBT is  4096
------------------------------------------------------------


------------------------------------------------------------
          Reading geometry description geometry.in.
------------------------------------------------------------
  Input structure read successfully.
  The structure contains        2 atoms,  and a total of          2.000 electrons.

  Input geometry:
  | No unit cell requested.
  | Atomic structure:
  |       Atom                x [A]            y [A]            z [A]
  |    1: Species H              0.000000         0.000000         0.000000
  |    2: Species H              0.000000         0.000000         0.800000
  |

  | The smallest distance between any two atoms is         0.80000000 AA.
  |
  | The first atom of this pair is atom number                      1 .
  | The second atom of this pair is atom number                     2 .

  Number of empty states per atom not set in control.in .
  | Since you are using a method that relies on the unoccupied spectrum
  | (MP2,GW,RPA et al.), will use the full Hamiltonian size (see below)
  | as the max. possible number of states (occupied plus empty).

  Structure-dependent array size parameters: 
  | Maximum number of distinct radial functions  :       11
  | Maximum number of basis functions            :       62
  | Number of Kohn-Sham states (occupied + empty):       62
------------------------------------------------------------

------------------------------------------------------------
          Preparing all fixed parts of the calculation.
------------------------------------------------------------
  Determining machine precision:
    2.225073858507201E-308
  Setting up grids for atomic and cluster calculations.

  Creating wave function, potential, and density for free atoms.

  Species: H

  List of occupied orbitals and eigenvalues:
    n    l              occ      energy [Ha]    energy [eV]
    1    0           1.0000        -0.233457        -6.3527

  Creating fixed part of basis set: Ionic, confined, hydrogenic.
 
  H                    hydrogenic:
 
  List of hydrogenic basis orbitals: 
    n    l      effective z      eigenvalue [eV]  inner max. [A]     outer max. [A]     outer radius [A]   
    1    0         1.156555       -18.1992           0.460320           0.460320           5.243229
    1    0         1.686845       -38.7143           0.315118           0.315118           4.932336
    1    0         2.460277       -82.3547           0.215718           0.215718           3.815562
    2    1         2.921459       -29.0309           0.723605           0.723605           5.243229
    2    1         4.145018       -58.4405           0.507614           0.507614           4.813203
    2    1         5.881026      -117.6432           0.360475           0.360475           3.678162
    3    2         6.414469       -62.2013           0.741515           0.741515           4.993004
    3    2         7.675365       -89.0587           0.617279           0.617279           4.583499
    4    3        10.808700       -99.3454           0.778676           0.778676           4.696947
    1    0         3.588333      -175.1887           0.147673           0.147673           2.644120
 

  Adding cutoff potential to free-atom effective potential.
  Creating atomic-like basis functions for current effective potential.

  Species H                   :

  List of atomic basis orbitals and eigenvalues:
    n    l      energy [Ha]    energy [eV]    outer radius [A]
    1    0        -0.233418        -6.3516       5.373006

  Assembling full basis from fixed parts.
  | Species H :   atomic orbital   1 s accepted.
  | Species H :    hydro orbital   1 s accepted.
  | Species H :    hydro orbital   1 s accepted.
  | Species H :    hydro orbital   1 s accepted.
  | Species H :    hydro orbital   1 s accepted.
  | Species H :    hydro orbital   2 p accepted.
  | Species H :    hydro orbital   2 p accepted.
  | Species H :    hydro orbital   2 p accepted.
  | Species H :    hydro orbital   3 d accepted.
  | Species H :    hydro orbital   3 d accepted.
  | Species H :    hydro orbital   4 f accepted.
 
  Basis size parameters after reduction:
  | Total number of radial functions:       11
  | Total number of basis functions :       62
 
  Testing on-site integration grid accuracy.
  |  Species  Function  <phi|h_atom|phi> (log., in eV)  <phi|h_atom|phi> (rad., in eV)
           1        1                 -6.3519216712                 -6.3519215989
           1        2                  8.4716038567                  8.4716058028
           1        3                 58.3749927434                 58.3750109815
           1        4                178.9024737125                178.9026031671
           1        5                456.3642310330                456.3649721232
           1        6                 16.2415699263                 16.2415699338
           1        7                 68.2932618880                 68.2932619123
           1        8                188.3801588017                188.3801587562
           1        9                 49.9849006789                 49.9849006869
           1       10                114.3821731125                114.3821730675
           1       11                 88.0899419283                 88.0899419237

  Preparing densities etc. for the partition functions (integrals / Hartree potential).

  Preparations completed.
  max(cpu_time)          :      0.192 s.
  Wall clock time (cpu1) :      0.203 s.
------------------------------------------------------------

------------------------------------------------------------
          Begin self-consistency loop: Initialization.

          Date     :  20140812, Time     :  111509.358
------------------------------------------------------------

  Initializing index lists of integration centers etc. from given atomic structure:
  | Number of centers in hartree potential         :         2
  | Number of centers in hartree multipole         :         2
  | Number of centers in electron density summation:         2
  | Number of centers in basis integrals           :         2
  | Number of centers in integrals                 :         2
  Partitioning the integration grid into batches with parallel hashing+maxmin method.
  | Number of batches:     1969
  | Maximal batch size:     150
  | Minimal batch size:      65
  | Average batch size:      73.339
  | Standard deviation of batch sizes:      14.451

  Integration load balanced across     4 MPI tasks.
  Work distribution over tasks is as follows:
  Task     0 has      36067 integration points.
  Task     1 has      36102 integration points.
  Task     2 has      36100 integration points.
  Task     3 has      36135 integration points.
  Initializing partition tables, free-atom densities, potentials, etc. across the integration grid (initialize_grid_storage).
  | Original list of interatomic distances with           2 x          2 entries is created.
  | Net number of integration points:   144404
  | of which are non-zero points    :   130036
  Obtaining max. number of non-zero basis functions in each batch (get_n_compute_maxes).
  | Maximal number of non-zero basis functions:       62 in task     0
  | Maximal number of non-zero basis functions:       62 in task     1
  | Maximal number of non-zero basis functions:       62 in task     2
  | Maximal number of non-zero basis functions:       62 in task     3
  Selecting the method for density update.
  Loop over occupied states selected for charge density update.
  Integrating Hamiltonian matrix: batch-based integration.
  Time summed over all CPUs for integration: real work        1.119 s, elapsed        1.148 s
  Integrating overlap matrix.
  Time summed over all CPUs for integration: real work        0.722 s, elapsed        0.759 s

  Updating Kohn-Sham eigenvalues, eigenvectors, occupation numbers, and Fermi level.
  Solving generalized eigenproblem
  Updating Kohn-Sham eigenvalues and eigenfunctions.
  Transforming overlap matrix and checking for singularities.
  Overlap matrix is nonsingular:
  | Lowest eigenvalue:  0.151434E-04
  Solving real generalised eigenvalue problem by standard LAPACK (fast)
  Determining occupation numbers for Kohn-Sham eigenstates.
  | Chemical potential (Fermi level) in eV                 : -.69744550E+01
  | Error in electron count due to remaining E_F inaccuracy: 0.00000000E+00
  | Maximum occupation number of highest empty state:  0.00E+00

  Writing Kohn-Sham eigenvalues.

  State    Occupation    Eigenvalue [Ha]    Eigenvalue [eV]
      1       2.00000          -0.480274          -13.06893
      2       0.00000          -0.032339           -0.87998
      3       0.00000           0.040958            1.11453
      4       0.00000           0.149075            4.05653
      5       0.00000           0.149075            4.05653
      6       0.00000           0.194884            5.30305
      7       0.00000           0.407894           11.09935
      8       0.00000           0.410579           11.17244
      9       0.00000           0.410579           11.17244
     10       0.00000           0.577005           15.70111
     11       0.00000           0.620984           16.89783
     12       0.00000           0.856462           23.30552
     13       0.00000           0.856462           23.30552
     14       0.00000           0.925308           25.17891
     15       0.00000           1.170488           31.85059
     16       0.00000           1.170488           31.85059
     17       0.00000           1.440744           39.20464
     18       0.00000           1.440744           39.20465
     19       0.00000           1.444012           39.29356
     20       0.00000           1.444012           39.29356
     21       0.00000           1.460105           39.73148
     22       0.00000           1.505209           40.95883
     23       0.00000           1.505209           40.95883
     24       0.00000           2.020903           54.99157
     25       0.00000           2.198834           59.83333
     26       0.00000           2.669042           72.62832
     27       0.00000           2.669042           72.62832
     28       0.00000           2.804517           76.31478
     29       0.00000           2.804517           76.31478
     30       0.00000           3.090571           84.09873
     31       0.00000           3.210504           87.36226
     32       0.00000           3.543199           96.41535
     33       0.00000           3.543199           96.41535
     34       0.00000           4.077852          110.96399
     35       0.00000           4.077852          110.96399
     36       0.00000           4.665910          126.96587
     37       0.00000           4.665910          126.96587
     38       0.00000           4.671480          127.11744
     39       0.00000           4.671480          127.11744
     40       0.00000           4.868748          132.48537
     41       0.00000           4.868748          132.48537
     42       0.00000           5.060913          137.71444
     43       0.00000           5.538067          150.69848
     44       0.00000           5.622780          153.00362
     45       0.00000           5.622780          153.00363
     46       0.00000           6.069277          165.15342
     47       0.00000           6.069277          165.15342
     48       0.00000           6.483137          176.41513
     49       0.00000           6.497331          176.80138
     50       0.00000           6.497332          176.80141
     51       0.00000           6.801447          185.07679
     52       0.00000           8.331966          226.72433
     53       0.00000           8.331966          226.72433
     54       0.00000           8.811294          239.76750
     55       0.00000           8.811294          239.76750
     56       0.00000          10.600673          288.45900
     57       0.00000          13.636627          371.07150
     58       0.00000          14.980513          407.64050
     59       0.00000          14.980513          407.64050
     60       0.00000          19.736861          537.06731
     61       0.00000          25.017799          680.76895
     62       0.00000          35.539326          967.07426

  Highest occupied state (VBM) at    -13.06892785 eV
  | Occupation number:      2.00000000

  Lowest unoccupied state (CBM) at    -0.87998216 eV
  | Occupation number:      0.00000000

  Overall HOMO-LUMO gap:     12.18894569 eV.
  Calculating total energy contributions from superposition of free atom densities.

  Total energy components:
  | Sum of eigenvalues            :          -0.96054854 Ha         -26.13785571 eV
  | XC energy correction          :          -0.52753308 Ha         -14.35490536 eV
  | XC potential correction       :           0.68808140 Ha          18.72364742 eV
  | Free-atom electrostatic energy:          -0.36079705 Ha          -9.81778714 eV
  | Hartree energy correction     :           0.00000000 Ha           0.00000000 eV
  | Entropy correction            :           0.00000000 Ha           0.00000000 eV
  | ---------------------------
  | Total energy                  :          -1.16079727 Ha         -31.58690078 eV
  | Total energy, T -> 0          :          -1.16079727 Ha         -31.58690078 eV  <-- do not rely on this value for anything but (periodic) metals
  | Electronic free energy        :          -1.16079727 Ha         -31.58690078 eV

  Derived energy quantities:
  | Kinetic energy                :           0.63948495 Ha          17.40127093 eV
  | Electrostatic energy          :          -1.27274914 Ha         -34.63326636 eV
  | Energy correction for multipole
  | error in Hartree potential    :           0.00000000 Ha           0.00000000 eV
  | Sum of eigenvalues per atom                           :         -13.06892785 eV
  | Total energy (T->0) per atom                          :         -15.79345039 eV  <-- do not rely on this value for anything but (periodic) metals
  | Electronic free energy per atom                       :         -15.79345039 eV
 
 --------------------------------------------
  Constructing auxiliary basis (full product) ...
 
  Product basis:
  | charge radius: extent of product basis function
  | field radius: extent of its Coulomb potential
  | Species   l  charge radius    field radius  multipol momen
  |    H      5     4.813203 A      4.813203 A  2.676041E-15 a.u.
  |    H      4     4.932336 A      4.932336 A  2.417679E-16 a.u.
  |    H      3     5.054418 A      5.054418 A  ************ a.u.
  |    H      4     5.054418 A      5.054418 A  ************ a.u.
  |    H      3     5.116587 A      5.116587 A  1.642688E-15 a.u.
  |    H      2     5.179521 A      5.179521 A  6.126280E-16 a.u.
  |    H      3     5.179521 A      5.179521 A  ************ a.u.
  |    H      2     5.243229 A      5.243229 A  1.485543E-16 a.u.
  |    H      2     5.243229 A      5.243229 A  1.683301E-16 a.u.
  |    H      2     5.243229 A      5.243229 A  ************ a.u.
  |    H      3     5.243229 A      5.243229 A  ************ a.u.
  |    H      1     5.307721 A      5.307721 A  2.416866E-16 a.u.
  |    H      1     5.307721 A      5.307721 A  1.291012E-16 a.u.
  |    H      2     5.307721 A      5.307721 A  7.871382E-16 a.u.
  |    H      0     5.373006 A      5.373006 A  9.519909E-17 a.u.
  |    H      1     5.373006 A      5.373006 A  2.334090E-16 a.u.
  |    H      1     5.373006 A      5.373006 A  ************ a.u.
  |    H      1     5.373006 A      5.373006 A  ************ a.u.
  |    H      1     5.373006 A      5.373006 A  1.823473E-16 a.u.
  |    H      0     5.373006 A      5.439094 A  ************ a.u.
  |    H      0     5.439094 A      5.439094 A  ************ a.u.
  |    H      0     5.439094 A      5.505995 A  9.305319E-17 a.u.
  |    H      0     5.439094 A      5.505995 A  4.082184E-17 a.u.
  |    H      0     5.439094 A      5.505995 A  3.169850E-16 a.u.
  |    H      0     5.439094 A      5.505995 A  2.711689E-16 a.u.
  |    H      5     4.872405 A  1.325110E+02 A           19.619780 a.u.
  |    H      4     5.054418 A  3.771796E+02 A           14.639479 a.u.
  |    H      3     5.243229 A  1.836978E+03 A           11.555842 a.u.
  |    H      2     5.307721 A  2.095310E+04 A            4.940052 a.u.
  |    H      1     5.373006 A  2.512347E+06 A            1.793689 a.u.
  |    H      0     5.439094 A  4.604132E+12 A            0.692368 a.u.

  | Shrink_full_auxil_basis : there are       31  radial auxiliary wave functions
                            accepted and      90 rejected.
  | Shrink_full_auxil_basis : there are totally     286 partial auxiliary wave functions.
 
  | Number of product basis functions per thread :    72
  | Minimal requirement for computer memories :           0.005 Gbs
 
  Basis pair condensation :      1953  -->       1953
 
 ----------------------------------------------------
  Integrating the 3-basis-function Coulomb matrix ...
  | i_atom:            1
  | i_atom:            2
  Integrating the Coulomb interaction matrix for auxiliary basis functions (by atoms)

  SBT integration errors (all should be 'small'):
  large logFT aliasing -> increase N/lnrange
  large SBT aliasing -> decrease lnk0 & increase lnk0+lnrange
  large SBT ringing -> decrease lnr0 & increase lnr0+lnrange
  |            El't  L: logFT-al.   small-k   large-k   small-r   large-r
  Atomic logSBT for 2-center Coulomb matrix    :  max(cpu_time)    wall_clock(cpu1)
  | Multiplication with kernel                 :        0.020 s           0.010 s
  | Main matrix multiplication                 :        0.068 s           0.045 s
  | Analytic angular integration               :        0.004 s           0.003 s
  | Kernel construction                        :        0.004 s           0.002 s
  | Overall 2-center overlap time              :        0.096 s           0.063 s

  Difference of Coulomb matrix to its transposed:  3.3307E-16
  Task     0: Eigenvalues of the Coulomb matrix range from    2.0000E+00 to    2.0305E-10.
  Task     0: Using      277   eigenvalues out of rank      286   Coulomb matrix (auxiliary basis).
  Task     0: Still using eigenvalue     1.2336E-05 while cutting     7.1572E-06 in Coulomb matrix.
 
  Multiplying V^-0.5 x ovlp_3fn (1d-scalapack)

  Initialize hartree_potential_storage
  Max. number of atoms included in rho_multipole:            2

  End scf initialization - timings             :  max(cpu_time)    wall_clock(cpu1)
  | Time for scf. initialization               :       24.014 s          24.035 s
  | Boundary condition initialization          :        0.000 s           0.001 s
  | Integration                                :        0.476 s           0.477 s
  | Solution of K.-S. eqns.                    :        0.008 s           0.005 s
  | Grid partitioning                          :        0.288 s           0.286 s
  | Preloading free-atom quantities on grid    :        0.068 s           0.067 s
  | Free-atom superposition energy             :        0.040 s           0.038 s
  | Total energy evaluation                    :        0.000 s           0.000 s
  | Product basis setup: Total time            :       23.053 s          23.075 s
  | Product basis: | 3-center integrations     :       22.589 s          22.614 s
  | Product basis: | 2-center integrations     :        0.248 s           0.252 s
  | Product basis: | 2-center linear algebra   :        0.076 s           0.074 s
  | Product basis: | 3-center x 2-center       :        0.028 s           0.028 s
------------------------------------------------------------

------------------------------------------------------------
          Begin self-consistency iteration #    1

  Date     :  20140812, Time     :  111533.394
------------------------------------------------------------
  Evaluating new KS density.
  Integration grid: deviation in total charge (<rho> - N_e) =   2.220446E-15
  Pulay mixing of updated and previous charge densities.

  Evaluating partitioned Hartree potential by multipole expansion.
  | Analytical far-field extrapolation by fixed multipoles:
  | Hartree multipole sum: apparent total charge =  -0.106463E-06
  Summing up the Hartree potential.
  Time summed over all CPUs for potential: real work        0.947 s, elapsed        0.954 s
  | RMS charge density error from multipole expansion :   0.836447E-03

  Integrating Hamiltonian matrix: batch-based integration.
  Time summed over all CPUs for integration: real work        1.025 s, elapsed        1.041 s
  Evaluating the exchange matrix ... 

  Updating Kohn-Sham eigenvalues, eigenvectors, occupation numbers, and Fermi level.
  Solving generalized eigenproblem
  Updating Kohn-Sham eigenvalues and eigenfunctions.
  Solving real generalised eigenvalue problem by standard LAPACK (fast)
  Determining occupation numbers for Kohn-Sham eigenstates.
  | Chemical potential (Fermi level) in eV                 : -.70859156E+01
  | Error in electron count due to remaining E_F inaccuracy: 0.00000000E+00
  | Maximum occupation number of highest empty state:  0.00E+00

  Writing Kohn-Sham eigenvalues.

  State    Occupation    Eigenvalue [Ha]    Eigenvalue [eV]
      1       2.00000          -0.633181          -17.22972
      2       0.00000           0.112375            3.05789
      3       0.00000           0.139179            3.78725
      4       0.00000           0.351007            9.55139
      5       0.00000           0.351007            9.55139
      6       0.00000           0.372432           10.13438
      7       0.00000           0.583029           15.86504
      8       0.00000           0.583029           15.86504
      9       0.00000           0.588213           16.00608
     10       0.00000           0.766463           20.85651
     11       0.00000           0.790756           21.51756
     12       0.00000           1.111290           30.23975
     13       0.00000           1.111290           30.23975
     14       0.00000           1.211165           32.95746
     15       0.00000           1.481798           40.32178
     16       0.00000           1.481798           40.32178
     17       0.00000           1.695563           46.13861
     18       0.00000           1.695563           46.13862
     19       0.00000           1.708579           46.49281
     20       0.00000           1.708579           46.49281
     21       0.00000           1.746423           47.52258
     22       0.00000           1.792424           48.77435
     23       0.00000           1.792424           48.77435
     24       0.00000           2.310127           62.86175
     25       0.00000           2.545204           69.25852
     26       0.00000           3.020019           82.17889
     27       0.00000           3.020019           82.17889
     28       0.00000           3.150256           85.72284
     29       0.00000           3.150256           85.72284
     30       0.00000           3.508039           95.45861
     31       0.00000           3.665759           99.75039
     32       0.00000           3.941566          107.25546
     33       0.00000           3.941566          107.25546
     34       0.00000           4.434511          120.66919
     35       0.00000           4.434511          120.66919
     36       0.00000           5.088008          138.45173
     37       0.00000           5.088008          138.45174
     38       0.00000           5.167515          140.61523
     39       0.00000           5.167515          140.61523
     40       0.00000           5.267340          143.33161
     41       0.00000           5.267340          143.33161
     42       0.00000           5.533330          150.56956
     43       0.00000           5.945429          161.78336
     44       0.00000           6.022246          163.87365
     45       0.00000           6.022246          163.87365
     46       0.00000           6.461212          175.81852
     47       0.00000           6.461212          175.81852
     48       0.00000           6.944476          188.96882
     49       0.00000           6.960554          189.40630
     50       0.00000           6.960555          189.40634
     51       0.00000           7.319294          199.16813
     52       0.00000           8.891176          241.94122
     53       0.00000           8.891176          241.94122
     54       0.00000           9.380928          255.26805
     55       0.00000           9.380928          255.26805
     56       0.00000          11.237406          305.78538
     57       0.00000          14.282142          388.63685
     58       0.00000          15.582249          424.01456
     59       0.00000          15.582249          424.01456
     60       0.00000          20.421008          555.68391
     61       0.00000          25.707892          699.54733
     62       0.00000          36.239629          986.13049

  Highest occupied state (VBM) at    -17.22972349 eV
  | Occupation number:      2.00000000

  Lowest unoccupied state (CBM) at     3.05789221 eV
  | Occupation number:      0.00000000

  Overall HOMO-LUMO gap:     20.28761570 eV.

  Total energy components:
  | Sum of eigenvalues            :          -1.26636140 Ha         -34.45944697 eV
  | XC energy correction          :           0.67101641 Ha          18.25928547 eV
  | XC potential correction       :           0.00000000 Ha           0.00000000 eV
  | Free-atom electrostatic energy:          -0.36079705 Ha          -9.81778714 eV
  | Hartree energy correction     :          -0.17890071 Ha          -4.86813603 eV
  | Entropy correction            :           0.00000000 Ha           0.00000000 eV
  | ---------------------------
  | Total energy                  :          -1.13504275 Ha         -30.88608466 eV
  | Total energy, T -> 0          :          -1.13504275 Ha         -30.88608466 eV  <-- do not rely on this value for anything but (periodic) metals
  | Electronic free energy        :          -1.13504275 Ha         -30.88608466 eV

  Derived energy quantities:
  | Kinetic energy                :           1.04320715 Ha          28.38711084 eV
  | Electrostatic energy          :          -1.50723349 Ha         -41.01391003 eV
  | Energy correction for multipole
  | error in Hartree potential    :          -0.00010651 Ha          -0.00289817 eV
  | Sum of eigenvalues per atom                           :         -17.22972349 eV
  | Total energy (T->0) per atom                          :         -15.44304233 eV  <-- do not rely on this value for anything but (periodic) metals
  | Electronic free energy per atom                       :         -15.44304233 eV

  Self-consistency convergence accuracy:
  | Change of charge density      : 0.1607E+00
  | Change of sum of eigenvalues  : -.8322E+01 eV
  | Change of total energy        : 0.7008E+00 eV

  End self-consistency iteration #     1       :  max(cpu_time)    wall_clock(cpu1)
  | Time for this iteration                    :        0.708 s           0.710 s
  | Charge density update                      :        0.132 s           0.133 s
  | Density mixing                             :        0.004 s           0.003 s
  | Hartree multipole update                   :        0.060 s           0.059 s
  | Hartree multipole summation                :        0.240 s           0.240 s
  | Integration                                :        0.260 s           0.260 s
  | Fock matrix evaluation                     :        0.012 s           0.012 s
  | Solution of K.-S. eqns.                    :        0.000 s           0.002 s
  | Total energy evaluation                    :        0.000 s           0.001 s
------------------------------------------------------------

------------------------------------------------------------
          Begin self-consistency iteration #    2

  Date     :  20140812, Time     :  111534.104
------------------------------------------------------------
  Evaluating new KS density.
  Integration grid: deviation in total charge (<rho> - N_e) =  -6.217249E-15
  Pulay mixing of updated and previous charge densities.

  Evaluating partitioned Hartree potential by multipole expansion.
  | Analytical far-field extrapolation by fixed multipoles:
  | Hartree multipole sum: apparent total charge =  -0.117387E-06
  Summing up the Hartree potential.
  Time summed over all CPUs for potential: real work        0.958 s, elapsed        0.973 s
  | RMS charge density error from multipole expansion :   0.141595E-02

  Integrating Hamiltonian matrix: batch-based integration.
  Time summed over all CPUs for integration: real work        1.015 s, elapsed        1.025 s
  Evaluating the exchange matrix ... 

  Updating Kohn-Sham eigenvalues, eigenvectors, occupation numbers, and Fermi level.
  Solving generalized eigenproblem
  Updating Kohn-Sham eigenvalues and eigenfunctions.
  Solving real generalised eigenvalue problem by standard LAPACK (fast)
  Determining occupation numbers for Kohn-Sham eigenstates.
  | Chemical potential (Fermi level) in eV                 : -.61009075E+01
  | Error in electron count due to remaining E_F inaccuracy: 0.00000000E+00
  | Maximum occupation number of highest empty state:  0.00E+00

  Highest occupied state (VBM) at    -15.38353198 eV
  | Occupation number:      2.00000000

  Lowest unoccupied state (CBM) at     3.18171690 eV
  | Occupation number:      0.00000000

  Overall HOMO-LUMO gap:     18.56524888 eV.

  Total energy components:
  | Sum of eigenvalues            :          -1.13066882 Ha         -30.76706395 eV
  | XC energy correction          :           0.66772031 Ha          18.16959397 eV
  | XC potential correction       :           0.00000000 Ha           0.00000000 eV
  | Free-atom electrostatic energy:          -0.36079705 Ha          -9.81778714 eV
  | Hartree energy correction     :          -0.30637803 Ha          -8.33697033 eV
  | Entropy correction            :           0.00000000 Ha           0.00000000 eV
  | ---------------------------
  | Total energy                  :          -1.13012359 Ha         -30.75222745 eV
  | Total energy, T -> 0          :          -1.13012359 Ha         -30.75222745 eV  <-- do not rely on this value for anything but (periodic) metals
  | Electronic free energy        :          -1.13012359 Ha         -30.75222745 eV

  Derived energy quantities:
  | Kinetic energy                :           1.15565926 Ha          31.44708837 eV
  | Electrostatic energy          :          -1.61806254 Ha         -44.02972184 eV
  | Energy correction for multipole
  | error in Hartree potential    :          -0.00014924 Ha          -0.00406101 eV
  | Sum of eigenvalues per atom                           :         -15.38353198 eV
  | Total energy (T->0) per atom                          :         -15.37611373 eV  <-- do not rely on this value for anything but (periodic) metals
  | Electronic free energy per atom                       :         -15.37611373 eV

  Self-consistency convergence accuracy:
  | Change of charge density      : 0.6034E-01
  | Change of sum of eigenvalues  : 0.3692E+01 eV
  | Change of total energy        : 0.1339E+00 eV

  End self-consistency iteration #     2       :  max(cpu_time)    wall_clock(cpu1)
  | Time for this iteration                    :        0.716 s           0.714 s
  | Charge density update                      :        0.128 s           0.127 s
  | Density mixing                             :        0.004 s           0.004 s
  | Hartree multipole update                   :        0.068 s           0.067 s
  | Hartree multipole summation                :        0.244 s           0.245 s
  | Integration                                :        0.256 s           0.256 s
  | Fock matrix evaluation                     :        0.012 s           0.013 s
  | Solution of K.-S. eqns.                    :        0.000 s           0.001 s
  | Total energy evaluation                    :        0.000 s           0.001 s
------------------------------------------------------------

------------------------------------------------------------
          Begin self-consistency iteration #    3

  Date     :  20140812, Time     :  111534.818
------------------------------------------------------------
  Evaluating new KS density.
  Integration grid: deviation in total charge (<rho> - N_e) =   2.664535E-15
  Pulay mixing of updated and previous charge densities.

  Evaluating partitioned Hartree potential by multipole expansion.
  | Analytical far-field extrapolation by fixed multipoles:
  | Hartree multipole sum: apparent total charge =  -0.113603E-06
  Summing up the Hartree potential.
  Time summed over all CPUs for potential: real work        0.992 s, elapsed        1.023 s
  | RMS charge density error from multipole expansion :   0.123526E-02

  Integrating Hamiltonian matrix: batch-based integration.
  Time summed over all CPUs for integration: real work        1.109 s, elapsed        1.172 s
  Evaluating the exchange matrix ... 

  Updating Kohn-Sham eigenvalues, eigenvectors, occupation numbers, and Fermi level.
  Solving generalized eigenproblem
  Updating Kohn-Sham eigenvalues and eigenfunctions.
  Solving real generalised eigenvalue problem by standard LAPACK (fast)
  Determining occupation numbers for Kohn-Sham eigenstates.
  | Chemical potential (Fermi level) in eV                 : -.63316871E+01
  | Error in electron count due to remaining E_F inaccuracy: 0.00000000E+00
  | Maximum occupation number of highest empty state:  0.00E+00

  Highest occupied state (VBM) at    -15.78515847 eV
  | Occupation number:      2.00000000

  Lowest unoccupied state (CBM) at     3.12178430 eV
  | Occupation number:      0.00000000

  Overall HOMO-LUMO gap:     18.90694278 eV.

  Total energy components:
  | Sum of eigenvalues            :          -1.16018782 Ha         -31.57031695 eV
  | XC energy correction          :           0.64855104 Ha          17.64797183 eV
  | XC potential correction       :           0.00000000 Ha           0.00000000 eV
  | Free-atom electrostatic energy:          -0.36079705 Ha          -9.81778714 eV
  | Hartree energy correction     :          -0.26246798 Ha          -7.14211716 eV
  | Entropy correction            :           0.00000000 Ha           0.00000000 eV
  | ---------------------------
  | Total energy                  :          -1.13490181 Ha         -30.88224941 eV
  | Total energy, T -> 0          :          -1.13490181 Ha         -30.88224941 eV  <-- do not rely on this value for anything but (periodic) metals
  | Electronic free energy        :          -1.13490181 Ha         -30.88224941 eV

  Derived energy quantities:
  | Kinetic energy                :           1.08844244 Ha          29.61802564 eV
  | Electrostatic energy          :          -1.57479320 Ha         -42.85230322 eV
  | Energy correction for multipole
  | error in Hartree potential    :          -0.00011193 Ha          -0.00304584 eV
  | Sum of eigenvalues per atom                           :         -15.78515847 eV
  | Total energy (T->0) per atom                          :         -15.44112471 eV  <-- do not rely on this value for anything but (periodic) metals
  | Electronic free energy per atom                       :         -15.44112471 eV

  Self-consistency convergence accuracy:
  | Change of charge density      : 0.2113E-01
  | Change of sum of eigenvalues  : -.8033E+00 eV
  | Change of total energy        : -.1300E+00 eV

  End self-consistency iteration #     3       :  max(cpu_time)    wall_clock(cpu1)
  | Time for this iteration                    :        0.764 s           0.764 s
  | Charge density update                      :        0.132 s           0.129 s
  | Density mixing                             :        0.008 s           0.007 s
  | Hartree multipole update                   :        0.064 s           0.063 s
  | Hartree multipole summation                :        0.260 s           0.257 s
  | Integration                                :        0.296 s           0.293 s
  | Fock matrix evaluation                     :        0.012 s           0.013 s
  | Solution of K.-S. eqns.                    :        0.000 s           0.002 s
  | Total energy evaluation                    :        0.000 s           0.000 s
------------------------------------------------------------

------------------------------------------------------------
          Begin self-consistency iteration #    4

  Date     :  20140812, Time     :  111535.583
------------------------------------------------------------
  Evaluating new KS density.
  Integration grid: deviation in total charge (<rho> - N_e) =  -1.332268E-15
  Pulay mixing of updated and previous charge densities.

  Evaluating partitioned Hartree potential by multipole expansion.
  | Analytical far-field extrapolation by fixed multipoles:
  | Hartree multipole sum: apparent total charge =  -0.120482E-06
  Summing up the Hartree potential.
  Time summed over all CPUs for potential: real work        0.952 s, elapsed        0.957 s
  | RMS charge density error from multipole expansion :   0.122282E-02

  Integrating Hamiltonian matrix: batch-based integration.
  Time summed over all CPUs for integration: real work        1.024 s, elapsed        1.043 s
  Evaluating the exchange matrix ... 

  Updating Kohn-Sham eigenvalues, eigenvectors, occupation numbers, and Fermi level.
  Solving generalized eigenproblem
  Updating Kohn-Sham eigenvalues and eigenfunctions.
  Solving real generalised eigenvalue problem by standard LAPACK (fast)
  Determining occupation numbers for Kohn-Sham eigenstates.
  | Chemical potential (Fermi level) in eV                 : -.63079909E+01
  | Error in electron count due to remaining E_F inaccuracy: 0.00000000E+00
  | Maximum occupation number of highest empty state:  0.00E+00

  Highest occupied state (VBM) at    -15.71407592 eV
  | Occupation number:      2.00000000

  Lowest unoccupied state (CBM) at     3.09809419 eV
  | Occupation number:      0.00000000

  Overall HOMO-LUMO gap:     18.81217011 eV.

  Total energy components:
  | Sum of eigenvalues            :          -1.15496335 Ha         -31.42815184 eV
  | XC energy correction          :           0.64298245 Ha          17.49644265 eV
  | XC potential correction       :           0.00000000 Ha           0.00000000 eV
  | Free-atom electrostatic energy:          -0.36079705 Ha          -9.81778714 eV
  | Hartree energy correction     :          -0.25661885 Ha          -6.98295429 eV
  | Entropy correction            :           0.00000000 Ha           0.00000000 eV
  | ---------------------------
  | Total energy                  :          -1.12939680 Ha         -30.73245062 eV
  | Total energy, T -> 0          :          -1.12939680 Ha         -30.73245062 eV  <-- do not rely on this value for anything but (periodic) metals
  | Electronic free energy        :          -1.12939680 Ha         -30.73245062 eV

  Derived energy quantities:
  | Kinetic energy                :           1.07763158 Ha          29.32384717 eV
  | Electrostatic energy          :          -1.56404593 Ha         -42.55985514 eV
  | Energy correction for multipole
  | error in Hartree potential    :          -0.00009277 Ha          -0.00252443 eV
  | Sum of eigenvalues per atom                           :         -15.71407592 eV
  | Total energy (T->0) per atom                          :         -15.36622531 eV  <-- do not rely on this value for anything but (periodic) metals
  | Electronic free energy per atom                       :         -15.36622531 eV

  Self-consistency convergence accuracy:
  | Change of charge density      : 0.2035E-02
  | Change of sum of eigenvalues  : 0.1422E+00 eV
  | Change of total energy        : 0.1498E+00 eV

  End self-consistency iteration #     4       :  max(cpu_time)    wall_clock(cpu1)
  | Time for this iteration                    :        0.716 s           0.718 s
  | Charge density update                      :        0.132 s           0.131 s
  | Density mixing                             :        0.012 s           0.011 s
  | Hartree multipole update                   :        0.060 s           0.061 s
  | Hartree multipole summation                :        0.240 s           0.240 s
  | Integration                                :        0.264 s           0.261 s
  | Fock matrix evaluation                     :        0.012 s           0.012 s
  | Solution of K.-S. eqns.                    :        0.000 s           0.001 s
  | Total energy evaluation                    :        0.000 s           0.001 s
------------------------------------------------------------

------------------------------------------------------------
          Begin self-consistency iteration #    5

  Date     :  20140812, Time     :  111536.301
------------------------------------------------------------
  Evaluating new KS density.
  Integration grid: deviation in total charge (<rho> - N_e) =  -2.220446E-15
  Pulay mixing of updated and previous charge densities.

  Evaluating partitioned Hartree potential by multipole expansion.
  | Analytical far-field extrapolation by fixed multipoles:
  | Hartree multipole sum: apparent total charge =  -0.121292E-06
  Summing up the Hartree potential.
  Time summed over all CPUs for potential: real work        0.948 s, elapsed        0.963 s
  | RMS charge density error from multipole expansion :   0.121449E-02

  Integrating Hamiltonian matrix: batch-based integration.
  Time summed over all CPUs for integration: real work        1.020 s, elapsed        1.036 s
  Evaluating the exchange matrix ... 

  Updating Kohn-Sham eigenvalues, eigenvectors, occupation numbers, and Fermi level.
  Solving generalized eigenproblem
  Updating Kohn-Sham eigenvalues and eigenfunctions.
  Solving real generalised eigenvalue problem by standard LAPACK (fast)
  Determining occupation numbers for Kohn-Sham eigenstates.
  | Chemical potential (Fermi level) in eV                 : -.63134577E+01
  | Error in electron count due to remaining E_F inaccuracy: 0.00000000E+00
  | Maximum occupation number of highest empty state:  0.00E+00

  Highest occupied state (VBM) at    -15.71466461 eV
  | Occupation number:      2.00000000

  Lowest unoccupied state (CBM) at     3.08774920 eV
  | Occupation number:      0.00000000

  Overall HOMO-LUMO gap:     18.80241381 eV.

  Total energy components:
  | Sum of eigenvalues            :          -1.15500662 Ha         -31.42932922 eV
  | XC energy correction          :           0.63887713 Ha          17.38473131 eV
  | XC potential correction       :           0.00000000 Ha           0.00000000 eV
  | Free-atom electrostatic energy:          -0.36079705 Ha          -9.81778714 eV
  | Hartree energy correction     :          -0.25337591 Ha          -6.89470927 eV
  | Entropy correction            :           0.00000000 Ha           0.00000000 eV
  | ---------------------------
  | Total energy                  :          -1.13030244 Ha         -30.75709431 eV
  | Total energy, T -> 0          :          -1.13030244 Ha         -30.75709431 eV  <-- do not rely on this value for anything but (periodic) metals
  | Electronic free energy        :          -1.13030244 Ha         -30.75709431 eV

  Derived energy quantities:
  | Kinetic energy                :           1.06984999 Ha          29.11209952 eV
  | Electrostatic energy          :          -1.56127530 Ha         -42.48446251 eV
  | Energy correction for multipole
  | error in Hartree potential    :          -0.00009052 Ha          -0.00246316 eV
  | Sum of eigenvalues per atom                           :         -15.71466461 eV
  | Total energy (T->0) per atom                          :         -15.37854715 eV  <-- do not rely on this value for anything but (periodic) metals
  | Electronic free energy per atom                       :         -15.37854715 eV

  Self-consistency convergence accuracy:
  | Change of charge density      : 0.5078E-03
  | Change of sum of eigenvalues  : -.1177E-02 eV
  | Change of total energy        : -.2464E-01 eV

  End self-consistency iteration #     5       :  max(cpu_time)    wall_clock(cpu1)
  | Time for this iteration                    :        0.728 s           0.729 s
  | Charge density update                      :        0.140 s           0.139 s
  | Density mixing                             :        0.016 s           0.015 s
  | Hartree multipole update                   :        0.060 s           0.060 s
  | Hartree multipole summation                :        0.244 s           0.241 s
  | Integration                                :        0.260 s           0.259 s
  | Fock matrix evaluation                     :        0.012 s           0.012 s
  | Solution of K.-S. eqns.                    :        0.004 s           0.001 s
  | Total energy evaluation                    :        0.000 s           0.001 s
------------------------------------------------------------

------------------------------------------------------------
          Begin self-consistency iteration #    6

  Date     :  20140812, Time     :  111537.030
------------------------------------------------------------
  Evaluating new KS density.
  Integration grid: deviation in total charge (<rho> - N_e) =  -1.776357E-15
  Pulay mixing of updated and previous charge densities.

  Evaluating partitioned Hartree potential by multipole expansion.
  | Analytical far-field extrapolation by fixed multipoles:
  | Hartree multipole sum: apparent total charge =  -0.121910E-06
  Summing up the Hartree potential.
  Time summed over all CPUs for potential: real work        0.962 s, elapsed        0.975 s
  | RMS charge density error from multipole expansion :   0.121901E-02

  Integrating Hamiltonian matrix: batch-based integration.
  Time summed over all CPUs for integration: real work        1.032 s, elapsed        1.048 s
  Evaluating the exchange matrix ... 

  Updating Kohn-Sham eigenvalues, eigenvectors, occupation numbers, and Fermi level.
  Solving generalized eigenproblem
  Updating Kohn-Sham eigenvalues and eigenfunctions.
  Solving real generalised eigenvalue problem by standard LAPACK (fast)
  Determining occupation numbers for Kohn-Sham eigenstates.
  | Chemical potential (Fermi level) in eV                 : -.63054527E+01
  | Error in electron count due to remaining E_F inaccuracy: 0.00000000E+00
  | Maximum occupation number of highest empty state:  0.00E+00

  Highest occupied state (VBM) at    -15.70045196 eV
  | Occupation number:      2.00000000

  Lowest unoccupied state (CBM) at     3.08954657 eV
  | Occupation number:      0.00000000

  Overall HOMO-LUMO gap:     18.78999852 eV.

  Total energy components:
  | Sum of eigenvalues            :          -1.15396201 Ha         -31.40090391 eV
  | XC energy correction          :           0.63843778 Ha          17.37277585 eV
  | XC potential correction       :           0.00000000 Ha           0.00000000 eV
  | Free-atom electrostatic energy:          -0.36079705 Ha          -9.81778714 eV
  | Hartree energy correction     :          -0.25449845 Ha          -6.92525507 eV
  | Entropy correction            :           0.00000000 Ha           0.00000000 eV
  | ---------------------------
  | Total energy                  :          -1.13081972 Ha         -30.77117028 eV
  | Total energy, T -> 0          :          -1.13081972 Ha         -30.77117028 eV  <-- do not rely on this value for anything but (periodic) metals
  | Electronic free energy        :          -1.13081972 Ha         -30.77117028 eV

  Derived energy quantities:
  | Kinetic energy                :           1.06921421 Ha          29.09479905 eV
  | Electrostatic energy          :          -1.56159616 Ha         -42.49319348 eV
  | Energy correction for multipole
  | error in Hartree potential    :          -0.00008950 Ha          -0.00243533 eV
  | Sum of eigenvalues per atom                           :         -15.70045196 eV
  | Total energy (T->0) per atom                          :         -15.38558514 eV  <-- do not rely on this value for anything but (periodic) metals
  | Electronic free energy per atom                       :         -15.38558514 eV

  Self-consistency convergence accuracy:
  | Change of charge density      : 0.4549E-03
  | Change of sum of eigenvalues  : 0.2843E-01 eV
  | Change of total energy        : -.1408E-01 eV

  End self-consistency iteration #     6       :  max(cpu_time)    wall_clock(cpu1)
  | Time for this iteration                    :        0.728 s           0.729 s
  | Charge density update                      :        0.132 s           0.130 s
  | Density mixing                             :        0.020 s           0.019 s
  | Hartree multipole update                   :        0.060 s           0.059 s
  | Hartree multipole summation                :        0.248 s           0.245 s
  | Integration                                :        0.264 s           0.262 s
  | Fock matrix evaluation                     :        0.012 s           0.013 s
  | Solution of K.-S. eqns.                    :        0.000 s           0.001 s
  | Total energy evaluation                    :        0.000 s           0.000 s
------------------------------------------------------------

------------------------------------------------------------
          Begin self-consistency iteration #    7

  Date     :  20140812, Time     :  111537.760
------------------------------------------------------------
  Evaluating new KS density.
  Integration grid: deviation in total charge (<rho> - N_e) =  -4.440892E-16
  Pulay mixing of updated and previous charge densities.

  Evaluating partitioned Hartree potential by multipole expansion.
  | Analytical far-field extrapolation by fixed multipoles:
  | Hartree multipole sum: apparent total charge =  -0.121844E-06
  Summing up the Hartree potential.
  Time summed over all CPUs for potential: real work        0.954 s, elapsed        0.960 s
  | RMS charge density error from multipole expansion :   0.121824E-02

  Integrating Hamiltonian matrix: batch-based integration.
  Time summed over all CPUs for integration: real work        1.043 s, elapsed        1.067 s
  Evaluating the exchange matrix ... 

  Updating Kohn-Sham eigenvalues, eigenvectors, occupation numbers, and Fermi level.
  Solving generalized eigenproblem
  Updating Kohn-Sham eigenvalues and eigenfunctions.
  Solving real generalised eigenvalue problem by standard LAPACK (fast)
  Determining occupation numbers for Kohn-Sham eigenstates.
  | Chemical potential (Fermi level) in eV                 : -.63070008E+01
  | Error in electron count due to remaining E_F inaccuracy: 0.00000000E+00
  | Maximum occupation number of highest empty state:  0.00E+00

  Highest occupied state (VBM) at    -15.70282013 eV
  | Occupation number:      2.00000000

  Lowest unoccupied state (CBM) at     3.08881847 eV
  | Occupation number:      0.00000000

  Overall HOMO-LUMO gap:     18.79163860 eV.

  Total energy components:
  | Sum of eigenvalues            :          -1.15413607 Ha         -31.40564027 eV
  | XC energy correction          :           0.63824651 Ha          17.36757130 eV
  | XC potential correction       :           0.00000000 Ha           0.00000000 eV
  | Free-atom electrostatic energy:          -0.36079705 Ha          -9.81778714 eV
  | Hartree energy correction     :          -0.25421957 Ha          -6.91766645 eV
  | Entropy correction            :           0.00000000 Ha           0.00000000 eV
  | ---------------------------
  | Total energy                  :          -1.13090617 Ha         -30.77352255 eV
  | Total energy, T -> 0          :          -1.13090617 Ha         -30.77352255 eV  <-- do not rely on this value for anything but (periodic) metals
  | Electronic free energy        :          -1.13090617 Ha         -30.77352255 eV

  Derived energy quantities:
  | Kinetic energy                :           1.06880207 Ha          29.08358403 eV
  | Electrostatic energy          :          -1.56146172 Ha         -42.48953528 eV
  | Energy correction for multipole
  | error in Hartree potential    :          -0.00008964 Ha          -0.00243925 eV
  | Sum of eigenvalues per atom                           :         -15.70282013 eV
  | Total energy (T->0) per atom                          :         -15.38676128 eV  <-- do not rely on this value for anything but (periodic) metals
  | Electronic free energy per atom                       :         -15.38676128 eV

  Self-consistency convergence accuracy:
  | Change of charge density      : 0.8447E-04
  | Change of sum of eigenvalues  : -.4736E-02 eV
  | Change of total energy        : -.2352E-02 eV

  End self-consistency iteration #     7       :  max(cpu_time)    wall_clock(cpu1)
  | Time for this iteration                    :        0.736 s           0.736 s
  | Charge density update                      :        0.132 s           0.129 s
  | Density mixing                             :        0.024 s           0.025 s
  | Hartree multipole update                   :        0.060 s           0.060 s
  | Hartree multipole summation                :        0.240 s           0.241 s
  | Integration                                :        0.268 s           0.267 s
  | Fock matrix evaluation                     :        0.012 s           0.012 s
  | Solution of K.-S. eqns.                    :        0.000 s           0.002 s
  | Total energy evaluation                    :        0.000 s           0.000 s
------------------------------------------------------------

------------------------------------------------------------
          Begin self-consistency iteration #    8

  Date     :  20140812, Time     :  111538.496
------------------------------------------------------------
  Evaluating new KS density.
  Integration grid: deviation in total charge (<rho> - N_e) =  -4.440892E-15
  Pulay mixing of updated and previous charge densities.

  Evaluating partitioned Hartree potential by multipole expansion.
  | Analytical far-field extrapolation by fixed multipoles:
  | Hartree multipole sum: apparent total charge =  -0.121844E-06
  Summing up the Hartree potential.
  Time summed over all CPUs for potential: real work        0.946 s, elapsed        0.951 s
  | RMS charge density error from multipole expansion :   0.121824E-02

  Integrating Hamiltonian matrix: batch-based integration.
  Time summed over all CPUs for integration: real work        1.023 s, elapsed        1.039 s
  Evaluating the exchange matrix ... 

  Updating Kohn-Sham eigenvalues, eigenvectors, occupation numbers, and Fermi level.
  Solving generalized eigenproblem
  Updating Kohn-Sham eigenvalues and eigenfunctions.
  Solving real generalised eigenvalue problem by standard LAPACK (fast)
  Determining occupation numbers for Kohn-Sham eigenstates.
  | Chemical potential (Fermi level) in eV                 : -.63069483E+01
  | Error in electron count due to remaining E_F inaccuracy: 0.00000000E+00
  | Maximum occupation number of highest empty state:  0.00E+00

  Highest occupied state (VBM) at    -15.70273834 eV
  | Occupation number:      2.00000000

  Lowest unoccupied state (CBM) at     3.08884165 eV
  | Occupation number:      0.00000000

  Overall HOMO-LUMO gap:     18.79157999 eV.

  Total energy components:
  | Sum of eigenvalues            :          -1.15413005 Ha         -31.40547668 eV
  | XC energy correction          :           0.63824702 Ha          17.36758504 eV
  | XC potential correction       :           0.00000000 Ha           0.00000000 eV
  | Free-atom electrostatic energy:          -0.36079705 Ha          -9.81778714 eV
  | Hartree energy correction     :          -0.25422509 Ha          -6.91781680 eV
  | Entropy correction            :           0.00000000 Ha           0.00000000 eV
  | ---------------------------
  | Total energy                  :          -1.13090518 Ha         -30.77349558 eV
  | Total energy, T -> 0          :          -1.13090518 Ha         -30.77349558 eV  <-- do not rely on this value for anything but (periodic) metals
  | Electronic free energy        :          -1.13090518 Ha         -30.77349558 eV

  Derived energy quantities:
  | Kinetic energy                :           1.06880673 Ha          29.08371089 eV
  | Electrostatic energy          :          -1.56146489 Ha         -42.48962143 eV
  | Energy correction for multipole
  | error in Hartree potential    :          -0.00008964 Ha          -0.00243917 eV
  | Sum of eigenvalues per atom                           :         -15.70273834 eV
  | Total energy (T->0) per atom                          :         -15.38674779 eV  <-- do not rely on this value for anything but (periodic) metals
  | Electronic free energy per atom                       :         -15.38674779 eV

  Self-consistency convergence accuracy:
  | Change of charge density      : 0.8454E-06
  | Change of sum of eigenvalues  : 0.1636E-03 eV
  | Change of total energy        : 0.2697E-04 eV

  End self-consistency iteration #     8       :  max(cpu_time)    wall_clock(cpu1)
  | Time for this iteration                    :        0.728 s           0.730 s
  | Charge density update                      :        0.132 s           0.132 s
  | Density mixing                             :        0.028 s           0.026 s
  | Hartree multipole update                   :        0.060 s           0.059 s
  | Hartree multipole summation                :        0.240 s           0.239 s
  | Integration                                :        0.260 s           0.260 s
  | Fock matrix evaluation                     :        0.012 s           0.012 s
  | Solution of K.-S. eqns.                    :        0.004 s           0.001 s
  | Total energy evaluation                    :        0.000 s           0.000 s
------------------------------------------------------------

------------------------------------------------------------
          Begin self-consistency iteration #    9

  Date     :  20140812, Time     :  111539.226
------------------------------------------------------------
  Evaluating new KS density.
  Integration grid: deviation in total charge (<rho> - N_e) =  -1.287859E-14
  Pulay mixing of updated and previous charge densities.

  Evaluating partitioned Hartree potential by multipole expansion.
  | Analytical far-field extrapolation by fixed multipoles:
  | Hartree multipole sum: apparent total charge =  -0.121843E-06
  Summing up the Hartree potential.
  Time summed over all CPUs for potential: real work        0.954 s, elapsed        0.964 s
  | RMS charge density error from multipole expansion :   0.121823E-02

  Integrating Hamiltonian matrix: batch-based integration.
  Time summed over all CPUs for integration: real work        1.037 s, elapsed        1.099 s
  Evaluating the exchange matrix ... 

  Updating Kohn-Sham eigenvalues, eigenvectors, occupation numbers, and Fermi level.
  Solving generalized eigenproblem
  Updating Kohn-Sham eigenvalues and eigenfunctions.
  Solving real generalised eigenvalue problem by standard LAPACK (fast)
  Determining occupation numbers for Kohn-Sham eigenstates.
  | Chemical potential (Fermi level) in eV                 : -.63069848E+01
  | Error in electron count due to remaining E_F inaccuracy: 0.00000000E+00
  | Maximum occupation number of highest empty state:  0.00E+00

  Highest occupied state (VBM) at    -15.70279080 eV
  | Occupation number:      2.00000000

  Lowest unoccupied state (CBM) at     3.08882111 eV
  | Occupation number:      0.00000000

  Overall HOMO-LUMO gap:     18.79161191 eV.

  Total energy components:
  | Sum of eigenvalues            :          -1.15413391 Ha         -31.40558160 eV
  | XC energy correction          :           0.63824623 Ha          17.36756350 eV
  | XC potential correction       :           0.00000000 Ha           0.00000000 eV
  | Free-atom electrostatic energy:          -0.36079705 Ha          -9.81778714 eV
  | Hartree energy correction     :          -0.25421853 Ha          -6.91763803 eV
  | Entropy correction            :           0.00000000 Ha           0.00000000 eV
  | ---------------------------
  | Total energy                  :          -1.13090325 Ha         -30.77344326 eV
  | Total energy, T -> 0          :          -1.13090325 Ha         -30.77344326 eV  <-- do not rely on this value for anything but (periodic) metals
  | Electronic free energy        :          -1.13090325 Ha         -30.77344326 eV

  Derived energy quantities:
  | Kinetic energy                :           1.06880443 Ha          29.08364838 eV
  | Electrostatic energy          :          -1.56146146 Ha         -42.48952814 eV
  | Energy correction for multipole
  | error in Hartree potential    :          -0.00008964 Ha          -0.00243929 eV
  | Sum of eigenvalues per atom                           :         -15.70279080 eV
  | Total energy (T->0) per atom                          :         -15.38672163 eV  <-- do not rely on this value for anything but (periodic) metals
  | Electronic free energy per atom                       :         -15.38672163 eV

  Self-consistency convergence accuracy:
  | Change of charge density      : 0.1284E-05
  | Change of sum of eigenvalues  : -.1049E-03 eV
  | Change of total energy        : 0.5232E-04 eV

  End self-consistency iteration #     9       :  max(cpu_time)    wall_clock(cpu1)
  | Time for this iteration                    :        0.768 s           0.768 s
  | Charge density update                      :        0.136 s           0.133 s
  | Density mixing                             :        0.032 s           0.032 s
  | Hartree multipole update                   :        0.068 s           0.069 s
  | Hartree multipole summation                :        0.240 s           0.242 s
  | Integration                                :        0.276 s           0.275 s
  | Fock matrix evaluation                     :        0.016 s           0.015 s
  | Solution of K.-S. eqns.                    :        0.000 s           0.002 s
  | Total energy evaluation                    :        0.000 s           0.000 s
------------------------------------------------------------

------------------------------------------------------------
          Begin self-consistency iteration #   10

  Date     :  20140812, Time     :  111539.994
------------------------------------------------------------
  Evaluating new KS density.
  Integration grid: deviation in total charge (<rho> - N_e) =  -4.884981E-15
  Pulay mixing of updated and previous charge densities.

  Evaluating partitioned Hartree potential by multipole expansion.
  | Analytical far-field extrapolation by fixed multipoles:
  | Hartree multipole sum: apparent total charge =  -0.121843E-06
  Summing up the Hartree potential.
  Time summed over all CPUs for potential: real work        0.972 s, elapsed        0.986 s
  | RMS charge density error from multipole expansion :   0.121823E-02

  Integrating Hamiltonian matrix: batch-based integration.
  Time summed over all CPUs for integration: real work        1.017 s, elapsed        1.025 s
  Evaluating the exchange matrix ... 

  Updating Kohn-Sham eigenvalues, eigenvectors, occupation numbers, and Fermi level.
  Solving generalized eigenproblem
  Updating Kohn-Sham eigenvalues and eigenfunctions.
  Solving real generalised eigenvalue problem by standard LAPACK (fast)
  Determining occupation numbers for Kohn-Sham eigenstates.
  | Chemical potential (Fermi level) in eV                 : -.63069789E+01
  | Error in electron count due to remaining E_F inaccuracy: 0.00000000E+00
  | Maximum occupation number of highest empty state:  0.00E+00

  Highest occupied state (VBM) at    -15.70278253 eV
  | Occupation number:      2.00000000

  Lowest unoccupied state (CBM) at     3.08882482 eV
  | Occupation number:      0.00000000

  Overall HOMO-LUMO gap:     18.79160735 eV.

  Total energy components:
  | Sum of eigenvalues            :          -1.15413330 Ha         -31.40556506 eV
  | XC energy correction          :           0.63824631 Ha          17.36756562 eV
  | XC potential correction       :           0.00000000 Ha           0.00000000 eV
  | Free-atom electrostatic energy:          -0.36079705 Ha          -9.81778714 eV
  | Hartree energy correction     :          -0.25421971 Ha          -6.91767039 eV
  | Entropy correction            :           0.00000000 Ha           0.00000000 eV
  | ---------------------------
  | Total energy                  :          -1.13090376 Ha         -30.77345696 eV
  | Total energy, T -> 0          :          -1.13090376 Ha         -30.77345696 eV  <-- do not rely on this value for anything but (periodic) metals
  | Electronic free energy        :          -1.13090376 Ha         -30.77345696 eV

  Derived energy quantities:
  | Kinetic energy                :           1.06880463 Ha          29.08365366 eV
  | Electrostatic energy          :          -1.56146208 Ha         -42.48954500 eV
  | Energy correction for multipole
  | error in Hartree potential    :          -0.00008964 Ha          -0.00243927 eV
  | Sum of eigenvalues per atom                           :         -15.70278253 eV
  | Total energy (T->0) per atom                          :         -15.38672848 eV  <-- do not rely on this value for anything but (periodic) metals
  | Electronic free energy per atom                       :         -15.38672848 eV

  Self-consistency convergence accuracy:
  | Change of charge density      : 0.2799E-06
  | Change of sum of eigenvalues  : 0.1654E-04 eV
  | Change of total energy        : -.1370E-04 eV

  End self-consistency iteration #    10       :  max(cpu_time)    wall_clock(cpu1)
  | Time for this iteration                    :        0.796 s           0.796 s
  | Charge density update                      :        0.168 s           0.165 s
  | Density mixing                             :        0.032 s           0.035 s
  | Hartree multipole update                   :        0.080 s           0.076 s
  | Hartree multipole summation                :        0.244 s           0.248 s
  | Integration                                :        0.256 s           0.257 s
  | Fock matrix evaluation                     :        0.016 s           0.012 s
  | Solution of K.-S. eqns.                    :        0.004 s           0.001 s
  | Total energy evaluation                    :        0.000 s           0.001 s
------------------------------------------------------------

------------------------------------------------------------
          Begin self-consistency iteration #   11

  Date     :  20140812, Time     :  111540.790
------------------------------------------------------------
  Evaluating new KS density.
  Integration grid: deviation in total charge (<rho> - N_e) =   5.773160E-15
  Pulay mixing of updated and previous charge densities.

[...]

  Integrating Hamiltonian matrix: batch-based integration.
  Time summed over all CPUs for integration: real work        1.015 s, elapsed        1.030 s
  Evaluating the exchange matrix ... 

  Updating Kohn-Sham eigenvalues, eigenvectors, occupation numbers, and Fermi level.
  Solving generalized eigenproblem
  Updating Kohn-Sham eigenvalues and eigenfunctions.
  Solving real generalised eigenvalue problem by standard LAPACK (fast)
  Determining occupation numbers for Kohn-Sham eigenstates.
  | Chemical potential (Fermi level) in eV                 : -.63069788E+01
  | Error in electron count due to remaining E_F inaccuracy: 0.00000000E+00
  | Maximum occupation number of highest empty state:  0.00E+00

  Highest occupied state (VBM) at    -15.70278254 eV
  | Occupation number:      2.00000000

  Lowest unoccupied state (CBM) at     3.08882491 eV
  | Occupation number:      0.00000000

  Overall HOMO-LUMO gap:     18.79160745 eV.

  Total energy components:
  | Sum of eigenvalues            :          -1.15413330 Ha         -31.40556508 eV
  | XC energy correction          :           0.63824636 Ha          17.36756714 eV
  | XC potential correction       :           0.00000000 Ha           0.00000000 eV
  | Free-atom electrostatic energy:          -0.36079705 Ha          -9.81778714 eV
  | Hartree energy correction     :          -0.25421973 Ha          -6.91767087 eV
  | Entropy correction            :           0.00000000 Ha           0.00000000 eV
  | ---------------------------
  | Total energy                  :          -1.13090372 Ha         -30.77345594 eV
  | Total energy, T -> 0          :          -1.13090372 Ha         -30.77345594 eV  <-- do not rely on this value for anything but (periodic) metals
  | Electronic free energy        :          -1.13090372 Ha         -30.77345594 eV

  Derived energy quantities:
  | Kinetic energy                :           1.06880474 Ha          29.08365679 eV
  | Electrostatic energy          :          -1.56146210 Ha         -42.48954559 eV
  | Energy correction for multipole
  | error in Hartree potential    :          -0.00008964 Ha          -0.00243927 eV
  | Sum of eigenvalues per atom                           :         -15.70278254 eV
  | Total energy (T->0) per atom                          :         -15.38672797 eV  <-- do not rely on this value for anything but (periodic) metals
  | Electronic free energy per atom                       :         -15.38672797 eV

  Self-consistency convergence accuracy:
  | Change of charge density      : 0.4462E-08
  | Change of sum of eigenvalues  : 0.2336E-06 eV
  | Change of total energy        : 0.4425E-08 eV

  Writing Kohn-Sham eigenvalues.

  State    Occupation    Eigenvalue [Ha]    Eigenvalue [eV]
      1       2.00000          -0.577067          -15.70278
      2       0.00000           0.113512            3.08882
      3       0.00000           0.145006            3.94583
      4       0.00000           0.359417            9.78023
      5       0.00000           0.359417            9.78023
      6       0.00000           0.385035           10.47734
      7       0.00000           0.586680           15.96437
      8       0.00000           0.586680           15.96437
      9       0.00000           0.591453           16.09426
     10       0.00000           0.769885           20.94964
     11       0.00000           0.815366           22.18724
     12       0.00000           1.124982           30.61232
     13       0.00000           1.124982           30.61232
     14       0.00000           1.237369           33.67052
     15       0.00000           1.510868           41.11282
     16       0.00000           1.510868           41.11282
     17       0.00000           1.706496           46.43611
     18       0.00000           1.706496           46.43611
     19       0.00000           1.720385           46.81405
     20       0.00000           1.720385           46.81405
     21       0.00000           1.760187           47.89713
     22       0.00000           1.808918           49.22317
     23       0.00000           1.808918           49.22317
     24       0.00000           2.323764           63.23284
     25       0.00000           2.577402           70.13469
     26       0.00000           3.044248           82.83820
     27       0.00000           3.044248           82.83820
     28       0.00000           3.175109           86.39912
     29       0.00000           3.175109           86.39912
     30       0.00000           3.548691           96.56479
     31       0.00000           3.708848          100.92289
     32       0.00000           3.976022          108.19306
     33       0.00000           3.976022          108.19307
     34       0.00000           4.457301          121.28932
     35       0.00000           4.457301          121.28932
     36       0.00000           5.118942          139.29351
     37       0.00000           5.118943          139.29351
     38       0.00000           5.221690          142.08941
     39       0.00000           5.221690          142.08941
     40       0.00000           5.291377          143.98568
     41       0.00000           5.291377          143.98568
     42       0.00000           5.569861          151.56363
     43       0.00000           5.972021          162.50696
     44       0.00000           6.044991          164.49258
     45       0.00000           6.044992          164.49259
     46       0.00000           6.481647          176.37460
     47       0.00000           6.481647          176.37460
     48       0.00000           6.975522          189.81362
     49       0.00000           7.000626          190.49673
     50       0.00000           7.000627          190.49676
     51       0.00000           7.368076          200.49555
     52       0.00000           8.939875          243.26638
     53       0.00000           8.939875          243.26638
     54       0.00000           9.436168          256.77120
     55       0.00000           9.436168          256.77120
     56       0.00000          11.302742          307.56327
     57       0.00000          14.341941          390.26407
     58       0.00000          15.631015          425.34155
     59       0.00000          15.631015          425.34155
     60       0.00000          20.482737          557.36362
     61       0.00000          25.763335          701.05602
     62       0.00000          36.293837          987.60555

  Highest occupied state (VBM) at    -15.70278254 eV
  | Occupation number:      2.00000000

  Lowest unoccupied state (CBM) at     3.08882491 eV
  | Occupation number:      0.00000000

  Overall HOMO-LUMO gap:     18.79160745 eV.

  Self-consistency cycle converged.

  End self-consistency iteration #    12       :  max(cpu_time)    wall_clock(cpu1)
  | Time for this iteration                    :        0.804 s           0.807 s
  | Charge density update                      :        0.176 s           0.176 s
  | Density mixing                             :        0.048 s           0.048 s
  | Hartree multipole update                   :        0.068 s           0.070 s
  | Hartree multipole summation                :        0.240 s           0.240 s
  | Integration                                :        0.260 s           0.258 s
  | Fock matrix evaluation                     :        0.016 s           0.013 s
  | Solution of K.-S. eqns.                    :        0.000 s           0.001 s
  | Total energy evaluation                    :        0.000 s           0.000 s
------------------------------------------------------------

  Energy and forces in a compact form:
  | Total energy uncorrected      :         -0.307734559430533E+02 eV
  | Total energy corrected        :         -0.307734559430533E+02 eV  <-- do not rely on this value for anything but (periodic) metals
  | Electronic free energy        :         -0.307734559430533E+02 eV

  ------------------------------------ 
  Start decomposition of the XC Energy 
  ------------------------------------ 
  Hartree-Fock part   :          0.638246361 Ha             17.367567142 eV
  ------------------------------------ 
  X Energy            :          0.638246361 Ha             17.367567142 eV
  C Energy GGA        :          0.000000000 Ha              0.000000000 eV
  Total XC Energy     :          0.638246361 Ha             17.367567142 eV
  LDA X and C from self-consistent density 
  X Energy LDA        :         -0.550181874 Ha            -14.971210510 eV
  C Energy LDA        :         -0.093467389 Ha             -2.543377070 eV
  ------------------------------------ 
  End decomposition of the XC Energy 
  ------------------------------------ 
---------------------------------------------
---------------------------------------------
 | MP2 calculation starts ...
---------------------------------------------

  | Note : Resolution of identity applied 
  | Note : Non spin-polarized system 
---------------------------------------------
  | Homo level                                        1
  | Lumo level                                        2
  | Total Number of states                           62
  | Number of k-points                                1
  | Homo-Lumo Gap                            0.69057888 Ha         18.79160745 eV
---------------------------------------------
  The ovlp_3KS matrix takes another      0 MiB x      4 procs =       0.000 GiB.


---------------------------------------------
| Sum of correlation terms 
---------------------------------------------
  | Pair state     1                    :         -0.90626997 eV         -0.90626997 eV

---------------------------------------------
| Correlation energy spectrum 
---------------------------------------------
  |     2    :          0.11351223        -0.00193913
  |     3    :          0.14500643        -0.00118125
  |     4    :          0.35941677        -0.00186947
  |     5    :          0.35941677        -0.00186947
  |     6    :          0.38503516        -0.00573498
  |     7    :          0.58667970        -0.00012098
  |     8    :          0.58667970        -0.00012098
  |     9    :          0.59145305        -0.00030777
  |    10    :          0.76988520        -0.00048931
  |    11    :          0.81536618        -0.00287104
  |    12    :          1.12498196        -0.00020879
  |    13    :          1.12498199        -0.00020879
  |    14    :          1.23736873        -0.00392728
  |    15    :          1.51086848        -0.00177314
  |    16    :          1.51086848        -0.00177314
  |    17    :          1.70649576        -0.00004831
  |    18    :          1.70649582        -0.00004831
  |    19    :          1.72038460        -0.00026928
  |    20    :          1.72038460        -0.00026928
  |    21    :          1.76018724        -0.00043552
  |    22    :          1.80891829        -0.00059441
  |    23    :          1.80891829        -0.00059441
  |    24    :          2.32376416        -0.00020824
  |    25    :          2.57740232        -0.00117376
  |    26    :          3.04424784        -0.00022509
  |    27    :          3.04424784        -0.00022509
  |    28    :          3.17510914        -0.00005732
  |    29    :          3.17510914        -0.00005732
  |    30    :          3.54869072        -0.00070896
  |    31    :          3.70884796        -0.00099844
  |    32    :          3.97602203        -0.00013656
  |    33    :          3.97602213        -0.00013656
  |    34    :          4.45730068        -0.00002233
  |    35    :          4.45730068        -0.00002233
  |    36    :          5.11894230        -0.00010100
  |    37    :          5.11894255        -0.00010100
  |    38    :          5.22168995        -0.00037901
  |    39    :          5.22168995        -0.00037901
  |    40    :          5.29137655        -0.00010618
  |    41    :          5.29137655        -0.00010618
  |    42    :          5.56986110        -0.00023751
  |    43    :          5.97202088        -0.00005358
  |    44    :          6.04499130        -0.00003437
  |    45    :          6.04499159        -0.00003437
  |    46    :          6.48164750        -0.00002626
  |    47    :          6.48164750        -0.00002626
  |    48    :          6.97552231        -0.00009107
  |    49    :          7.00062607        -0.00005001
  |    50    :          7.00062732        -0.00005001
  |    51    :          7.36807616        -0.00019989
  |    52    :          8.93987527        -0.00012575
  |    53    :          8.93987527        -0.00012575
  |    54    :          9.43616819        -0.00008877
  |    55    :          9.43616819        -0.00008877
  |    56    :         11.30274249        -0.00011082
  |    57    :         14.34194101        -0.00006189
  |    58    :         15.63101464        -0.00002645
  |    59    :         15.63101464        -0.00002645
  |    60    :         20.48273652        -0.00002303
  |    61    :         25.76333524        -0.00001778
  |    62    :         36.29383689        -0.00000661
---------------------------------------------
 
 
 
          ---------------------------------------------
          | MP2 calculation comes to finish ...  
 
          ---------------------------------------------
          | Total time for calculating MP2 correction              :        0.000 s

          ---------------------------------------------

---------------------------------------------
  | HF Energy                      :         -1.13090372 Ha        -30.77345594 eV
  | MP2 correction                 :         -0.03330481 Ha         -0.90626997 eV
---------------------------------------------
  | Total Energy + MP2 correction  :         -1.16420853 Ha        -31.67972592 eV
---------------------------------------------

------------------------------------------------------------------------------
  Final output of selected total energy values:

  The following output summarizes some interesting total energy values
  at the end of a run (AFTER all relaxation, molecular dynamics, etc.).

  | Total energy of the DFT / Hartree-Fock s.c.f. calculation      :            -30.773455943 eV
  | Final zero-broadening corrected energy (caution - metals only) :            -30.773455943 eV
  | Total energy after the post-s.c.f. correlation calculation     :            -31.679725917 eV
  | For reference only, the value of 1 Hartree used in FHI-aims is :             27.211384500 eV

  Before relying on these values, please be sure to understand exactly which
  total energy value is referred to by a given number. Different objects may
  all carry the same name 'total energy'. Definitions:

  Total energy of the DFT / Hartree-Fock s.c.f. calculation:
  | Note that this energy does not include ANY quantities calculated after the
  | s.c.f. cycle, in particular not ANY RPA, MP2, etc. many-body perturbation terms.

  Final zero-broadening corrected energy:
  | For metallic systems only, a broadening of the occupation numbers at the Fermi
  | level can be extrapolated back to zero broadening by an electron-gas inspired
  | formula. For all systems that are not real metals, this value can be
  | meaningless and should be avoided.

  Total energy of the post-s.c.f. correlation calculation        :
  | The actual meaning of this energy depends on the setting for the 'total_energy_method'
  | keyword (MP2, RPA, rPT2, etc). If not sure, compare to the results listed above.

------------------------------------------------------------------------------

  Methods described in the following list of references were used in this FHI-aims run.
  If you publish the results, please make sure to cite these reference if they apply.
  FHI-aims is an academic code, and for our developers (often, Ph.D. students
  and postdocs), scientific credit in the community is essential.
  Thank you for helping us!

  For any use of FHI-aims, please cite:

    Volker Blum, Ralf Gehrke, Felix Hanke, Paula Havu, Ville Havu,
    Xinguo Ren, Karsten Reuter, and Matthias Scheffler,
    "Ab initio molecular simulations with numeric atom-centered orbitals"
    Computer Physics Communications 180, 2175-2196 (2009).
    http://dx.doi.org/10.1016/j.cpc.2009.06.022

  For Hartree-Fock, hybrid functionals, or many-body perturbation theory used in your run, please cite:

    Xinguo Ren, Patrick Rinke, Volker Blum, Juergen Wieferink, Alex Tkatchenko,
    Andrea Sanfilippo, Karsten Reuter, and Matthias Scheffler,
    "Resolution-of-identity approach to Hartree-Fock, hybrid density functionals,
     RPA, MP2, and GW with numeric atom-centered orbital basis functions"
    New Journal of Physics 14, 053020 (2012).
    http://dx.doi.org/10.1088/1367-2630/14/5/053020

  For the NAO-VCC-nZ basis sets used in this calculation, please cite:

    Igor Ying Zhang, Xinguo Ren, Patrick Rinke, Volker Blum, and Matthias Scheffler,
    "Numeric atom-centered-orbital basis sets with valence-correlation consistency from H to Ar"
    New Journal of Physics 15, 123033 (2013).
    http://dx.doi.org/10.1088/1367-2630/15/12/123033

  For the real-space grid partitioning and parallelization used in this calculation, please cite:

    Ville Havu, Volker Blum, Paula Havu, and Matthias Scheffler,
    "Efficient O(N) integration for all-electron electronic
    structure calculation using numerically tabulated basis functions"
    Journal of Computational Physics 228, 8367-8379 (2009).
    http://dx.doi.org/10.1016/j.jcp.2009.08.008

  Of course, there are many other important community references, e.g., those cited in the
  above references. Our list is limited to references that describe implementations in the FHI-aims
  code. The reason is purely practical (length of this list) - please credit others as well.

------------------------------------------------------------
          Leaving FHI-aims.
          Date     :  20140812, Time     :  111542.367

          Computational steps:
          | Number of self-consistency cycles          :           12

          Detailed time accounting                     :  max(cpu_time)    wall_clock(cpu1)
          | Total time                                 :       33.158 s          33.216 s
          | Preparation time                           :        0.192 s           0.203 s
          | Grid partitioning                          :        0.288 s           0.286 s
          | Preloading free-atom quantities on grid    :        0.068 s           0.067 s
          | Free-atom superposition energy             :        0.040 s           0.038 s
          | Total time for integrations                :        3.656 s           3.647 s
          | Product basis setup: Total time            :        0.000 s           0.000 s
          | Product basis: | 3-center integrations     :       22.589 s          22.614 s
          | Product basis: | 2-center integrations     :        0.248 s           0.252 s
          | Product basis: | 2-center linear algebra   :        0.076 s           0.074 s
          | Product basis: | 3-center x 2-center       :        0.028 s           0.028 s
          | Total time evaluating exchange matrix      :        0.156 s           0.151 s
          | Transforming ovlp_3fn to ovlp_3KS          :        0.012 s           0.010 s
          | Total time for solution of K.-S. equations :        0.024 s           0.021 s
          | Total time for density update              :        1.668 s           1.652 s
          | Total time for mixing                      :        0.264 s           0.262 s
          | Total time for Hartree multipole update    :        0.768 s           0.763 s
          | Total time for Hartree multipole sum       :        2.920 s           2.916 s
          | Total time for total energy evaluation     :        0.000 s           0.006 s

          Have a nice day.
------------------------------------------------------------
