  MPI-parallelism will be employed.
------------------------------------------------------------
          Invoking FHI-aims ...
          Version 072414
          Compiled on 2014/08/06 at 00:00:04 on host theobook58.

          When using FHI-aims, please cite the following reference:

          Volker Blum, Ralf Gehrke, Felix Hanke, Paula Havu,
          Ville Havu, Xinguo Ren, Karsten Reuter, and Matthias Scheffler,
          'Ab Initio Molecular Simulations with Numeric Atom-Centered Orbitals: FHI-aims',
          Computer Physics Communications 180, 2175-2196 (2009)

          For any questions about FHI-aims, please visit the aimsclub website
          with its forums and wiki. Contributions to both the forums and the
          wiki are warmly encouraged - they are for you, and everyone is welcome there.

------------------------------------------------------------

  Date     :  20140812, Time     :  111404.350
  Time zero on CPU 1             :   0.240000000000000E-01  s.
  Internal wall clock time zero  :           177074044.350  s.

  Using        4 parallel tasks.
  Task        0 on host theobook58 reporting.
  Task        1 on host theobook58 reporting.
  Task        2 on host theobook58 reporting.
  Task        3 on host theobook58 reporting.

  Performing system and environment tests:
  | Environment variable OMP_NUM_THREADS correctly set to 1.
  | Stacksize not measured: no C compiler
  | Checking for scalapack...
  | No scalapack compiled in.

  Obtaining array dimensions for all initial allocations:
  
  -----------------------------------------------------------------------
  Parsing control.in (first pass over file, find array dimensions only).
  The contents of control.in will be repeated verbatim below
  unless switched off by setting 'verbatim_writeout .false.' .
  in the first line of control.in .
  -----------------------------------------------------------------------
  
  xc                      hf
  total_energy_method     mp2
  relativistic            none
  occupation_type         integer 0.0001
  mixer                   pulay
  n_max_pulay             10
  charge_mix_param        0.6
  sc_iter_limit           600
  sc_accuracy_rho         1E-6
  sc_accuracy_eev         1E-4
  sc_accuracy_etot        1E-6
  override_illconditioning .true.
  charge                  0
  ################################################################################
  #
  #  FHI-aims code project
  # Igor Ying Zhang and Xinguo Ren, Fritz Haber Institute Berlin, 2012
  #
  #  Suggested "NAO-VCC-4Z" defaults for H atom (to be pasted into control.in file)
  #
  #  Please cite:
  #
  #  Igor Ying Zhang, Xinguo Ren, Patrick Rinke, Volker Blum, and Matthias Scheffler,
  #  "Numeric atom-centered-orbital basis sets with valence-correlation consistency from H to Ar"
  #  New Journal of Physics 15, 123033 (2013).
  #  http://dx.doi.org/10.1088/1367-2630/15/12/123033
  #
  ################################################################################
    species        H
  #     set basis set reference for FHI-aims output
      cite_reference NAO-VCC-2013
  #     global species definitions
      nucleus             1
      mass                1.00794
  #
      l_hartree           6
  #
      cut_pot             4.0  2.0  1.0
      basis_dep_cutoff    0e-4
  #
      radial_base         24 7.0
  radial_multiplier               6
      angular_grids       specified
        division   0.1930   50
        division   0.3175  110
        division   0.4293  194
        division   0.5066  302
        division   0.5626  434
        division   0.5922  590
  #      division   0.6227  974
  #      division   0.6868 1202
        outer_grid  770
  #      outer_grid  434
  ################################################################################
  #
  #  Definition of "minimal" basis
  #
  ################################################################################
  #     valence basis states
      valence      1  s   1.
  #     ion occupancy
      ion_occ      1  s   0.5
  ################################################################################
  
  
   basis_acc              1e-04
  #============================================
  # Optimization in      H for       NAO-VCC-4Z
  #============================================
  # (sp) correlation set
   hydro     1     s      1.15655525
   hydro     1     s      1.68684502
   hydro     1     s      2.46027686
   hydro     2     p      2.92145897
   hydro     2     p      4.14501835
   hydro     2     p      5.88102632
  # polarization set
   hydro     3     d      6.41446874
   hydro     3     d      7.67536483
   hydro     4     f     10.80870049
  # (sp) enhanced minimal set
   hydro     1     s      3.58833335
  
  -----------------------------------------------------------------------
  Completed first pass over input file control.in .
  -----------------------------------------------------------------------
  
  
  -----------------------------------------------------------------------
  Parsing geometry.in (first pass over file, find array dimensions only).
  The contents of geometry.in will be repeated verbatim below
  unless switched off by setting 'verbatim_writeout .false.' .
  in the first line of geometry.in .
  -----------------------------------------------------------------------
  
  atom             0.0             0.0             0.0    H
  atom             0.0             0.0             0.7    H
  
  -----------------------------------------------------------------------
  Completed first pass over input file geometry.in .
  -----------------------------------------------------------------------
  

  Basic array size parameters:
  | Number of species                 :        1
  | Number of atoms                   :        2
  | Max. basis fn. angular momentum   :        3
  | Max. atomic/ionic basis occupied n:        1
  | Max. number of basis fn. types    :        2
  | Max. radial fns per species/type  :       10
  | Max. logarithmic grid size        :     1131
  | Max. radial integration grid size :      149
  | Max. angular integration grid size:      770
  | Max. angular grid division number :        8
  | Radial grid for Hartree potential :     1131
  | Number of spin channels           :        1

------------------------------------------------------------
          Reading file control.in.
------------------------------------------------------------
 
  Hartree-Fock calculation starts ...... 
  Attention: this version of Hartree-Fock employs an auxiliary basis. 
 
  MP2 correlation energy calculation will be started after the DFT/HF calculation.
  Non-relativistic treatment of kinetic energy.
  Occupation type: Integer occupation.
  Using pulay charge density mixing.
  Pulay mixing - number of memorized iterations:   10
  Charge density mixing - mixing parameter:     0.6000
  Maximum number of s.-c. iterations  :   600
  Convergence accuracy of self-consistent charge density: 0.1000E-05
  Convergence accuracy of sum of eigenvalues: 0.1000E-03
  Convergence accuracy of total energy: 0.1000E-05
  override_illconditioning: Explicitly overriding any built-in checks for an ill-conditioned overlap matrix.
  *** WARNING: If you use this flag, you should really know what you are doing.
  *** DO NOT keep this flag set by default in all your control.in files.
  Charge =   0.000000E+00: Neutral system requested explicitly.
 
  Reading configuration options for species H                   .
  | Found nuclear charge :   1.0000
  | Found atomic mass :    1.00794000000000      amu
  | Found l_max for Hartree potential  :   6
  | Found cutoff potl. onset [A], width [A], scale factor :    4.00000    2.00000    1.00000
  | Threshold for basis-dependent cutoff potential is   0.000000E+00
  | Found data for basic radial integration grid :    24 points, outermost radius =    7.000 A
  | Found multiplier for basic radial grid :   6
  | Found angular grid specification: user-specified.
  | Specified grid contains     7 separate shells.
  | Check grid settings after all constraints further below.
  | Found free-atom valence shell :  1 s   1.000
  | No ionic wave fns used. Skipping ion_occ.
  | Found basis singularity cutoff : 0.1000E-03
  | Found hydrogenic basis function :  1 s   1.157
  | Found hydrogenic basis function :  1 s   1.687
  | Found hydrogenic basis function :  1 s   2.460
  | Found hydrogenic basis function :  2 p   2.921
  | Found hydrogenic basis function :  2 p   4.145
  | Found hydrogenic basis function :  2 p   5.881
  | Found hydrogenic basis function :  3 d   6.414
  | Found hydrogenic basis function :  3 d   7.675
  | Found hydrogenic basis function :  4 f  10.809
  | Found hydrogenic basis function :  1 s   3.588
  Species H                   : Missing cutoff potential type.
  Defaulting to exp(1/x)/(1-x)^2 type cutoff potential.
  Species H : No 'logarithmic' tag. Using default grid for free atom:
  | Default logarithmic grid data [bohr] : 0.1000E-03 0.1000E+03 0.1012E+01
  Species H                   : Using default innermost maximum threshold i_radial=  2 for radial functions.
  Species H                   : Default cutoff onset for free atom density etc. is infinite
  since the product basis is used (hybrid functionals, Hartree-Fock, GW etc.).
  Species H                   : Basic radial grid will be enhanced according to radial_multiplier =   6, to contain   149 grid points.
 
  Finished reading input file 'control.in'. Consistency checks are next.
 
  Species H: Using default value for prodbas_acc =   1.000000E-02.
  Species H: Using default value max_l_prodbas =     5.
  Target number of points in a grid batch is not set. Defaulting to  100
  Method for grid partitioning is not set. Defaulting to parallel hash+maxmin partitioning.
  Batch size limit is not set. Defaulting to    200
  By default, will store active basis functions for each batch.
  If in need of memory, prune_basis_once .false. can be used to disable this option.
  communication_type for Hartree potential was not specified.
  Defaulting to calc_hartree .
  Pulay mixer: Number of initial linear mixing iterations not set.
  Defaulting to    0 iterations.
  Work space size for distributed Hartree potential not set.
  Defaulting to   0.200000E+03 MB.
  Algorithm-dependent basis array size parameters:
  | n_max_pulay                         :       10
  Calculation of forces was not defined in control.in. No forces will be calculated.
  Geometry relaxation not requested: no relaxation will be performed.
  No accuracy limit for integral partition fn. given. Defaulting to 0.1000E-14.
  No threshold value for u(r) in integrations given. Defaulting to 0.1000E-05.
  No accuracy for occupation numbers given. Defaulting to 0.1000E-07.
  No threshold value for occupation numbers given. Defaulting to 0.0000E+00.
  No accuracy for fermi level given. Defaulting to 0.1000E-19.
  Maximum # of iterations to find E_F not set. Defaulting to  200.
  Preferred method for the eigenvalue solver ('KS_method') not specified in 'control.in'.
  Calling blacs routine to test compilation state
  The best choice would be 'elpa', but your version of FHI-aims is compiled without scalapack support.
  Defaulting to 'lapack_fast' instead (serial solution, time will not improve with more CPUs).
  Will not use alltoall communication since running on < 1024 CPUs.
  Threshold for basis singularities not set.
  Default threshold for basis singularities: 0.1000E-04
  partition_type (choice of integration weights) for integrals was not specified.
  | Using a version of the partition function of Stratmann and coworkers ('stratmann_smoother').
  | At each grid point, the set of atoms used to build the partition table is smoothly restricted to
  | only those atoms whose free-atom density would be non-zero at that grid point.
  Partitioning for Hartree potential was not defined. Using partition_type for integrals.
  | Adjusted default value of keyword multip_moments_threshold to:       0.10000000E-11
  | This value may affect high angular momentum components of the Hartree potential in periodic systems.
  Spin handling was not defined in control.in. Defaulting to unpolarized case.
  Threshold for auxiliary basis singularities not set.
  Default threshold for auxiliary basis singularities: 0.1000E-04
  No q(lm)/r^(l+1) cutoff set for long-range Hartree potential.
  | Using default value of  0.100000E-09 .
  | Verify using the multipole_threshold keyword.
  Defaulting to new monopole extrapolation.
  Density update method: automatic selection selected.
  Default to 1D ("use_logsbt") integrations for auxiliary 2-center integrals.
  Default onset of logarithmic r-grid for SBT is-38.000000000000
  Default onset of logarithmic k-grid for SBT is-25.000000000000
  Default range of logarithmic r- and k-grid for SBT is 45.000000000000
  Default number of logarithmic r- and k-grid for SBT is  4096
------------------------------------------------------------


------------------------------------------------------------
          Reading geometry description geometry.in.
------------------------------------------------------------
  Input structure read successfully.
  The structure contains        2 atoms,  and a total of          2.000 electrons.

  Input geometry:
  | No unit cell requested.
  | Atomic structure:
  |       Atom                x [A]            y [A]            z [A]
  |    1: Species H              0.000000         0.000000         0.000000
  |    2: Species H              0.000000         0.000000         0.700000
  |

  | The smallest distance between any two atoms is         0.70000000 AA.
  |
  | The first atom of this pair is atom number                      1 .
  | The second atom of this pair is atom number                     2 .

  Number of empty states per atom not set in control.in .
  | Since you are using a method that relies on the unoccupied spectrum
  | (MP2,GW,RPA et al.), will use the full Hamiltonian size (see below)
  | as the max. possible number of states (occupied plus empty).

  Structure-dependent array size parameters: 
  | Maximum number of distinct radial functions  :       11
  | Maximum number of basis functions            :       62
  | Number of Kohn-Sham states (occupied + empty):       62
------------------------------------------------------------

------------------------------------------------------------
          Preparing all fixed parts of the calculation.
------------------------------------------------------------
  Determining machine precision:
    2.225073858507201E-308
  Setting up grids for atomic and cluster calculations.

  Creating wave function, potential, and density for free atoms.

  Species: H

  List of occupied orbitals and eigenvalues:
    n    l              occ      energy [Ha]    energy [eV]
    1    0           1.0000        -0.233457        -6.3527

  Creating fixed part of basis set: Ionic, confined, hydrogenic.
 
  H                    hydrogenic:
 
  List of hydrogenic basis orbitals: 
    n    l      effective z      eigenvalue [eV]  inner max. [A]     outer max. [A]     outer radius [A]   
    1    0         1.156555       -18.1992           0.460320           0.460320           5.243229
    1    0         1.686845       -38.7143           0.315118           0.315118           4.932336
    1    0         2.460277       -82.3547           0.215718           0.215718           3.815562
    2    1         2.921459       -29.0309           0.723605           0.723605           5.243229
    2    1         4.145018       -58.4405           0.507614           0.507614           4.813203
    2    1         5.881026      -117.6432           0.360475           0.360475           3.678162
    3    2         6.414469       -62.2013           0.741515           0.741515           4.993004
    3    2         7.675365       -89.0587           0.617279           0.617279           4.583499
    4    3        10.808700       -99.3454           0.778676           0.778676           4.696947
    1    0         3.588333      -175.1887           0.147673           0.147673           2.644120
 

  Adding cutoff potential to free-atom effective potential.
  Creating atomic-like basis functions for current effective potential.

  Species H                   :

  List of atomic basis orbitals and eigenvalues:
    n    l      energy [Ha]    energy [eV]    outer radius [A]
    1    0        -0.233418        -6.3516       5.373006

  Assembling full basis from fixed parts.
  | Species H :   atomic orbital   1 s accepted.
  | Species H :    hydro orbital   1 s accepted.
  | Species H :    hydro orbital   1 s accepted.
  | Species H :    hydro orbital   1 s accepted.
  | Species H :    hydro orbital   1 s accepted.
  | Species H :    hydro orbital   2 p accepted.
  | Species H :    hydro orbital   2 p accepted.
  | Species H :    hydro orbital   2 p accepted.
  | Species H :    hydro orbital   3 d accepted.
  | Species H :    hydro orbital   3 d accepted.
  | Species H :    hydro orbital   4 f accepted.
 
  Basis size parameters after reduction:
  | Total number of radial functions:       11
  | Total number of basis functions :       62
 
  Testing on-site integration grid accuracy.
  |  Species  Function  <phi|h_atom|phi> (log., in eV)  <phi|h_atom|phi> (rad., in eV)
           1        1                 -6.3519216712                 -6.3519215989
           1        2                  8.4716038567                  8.4716058028
           1        3                 58.3749927434                 58.3750109815
           1        4                178.9024737125                178.9026031671
           1        5                456.3642310330                456.3649721232
           1        6                 16.2415699263                 16.2415699338
           1        7                 68.2932618880                 68.2932619123
           1        8                188.3801588017                188.3801587562
           1        9                 49.9849006789                 49.9849006869
           1       10                114.3821731125                114.3821730675
           1       11                 88.0899419283                 88.0899419237

  Preparing densities etc. for the partition functions (integrals / Hartree potential).

  Preparations completed.
  max(cpu_time)          :      0.212 s.
  Wall clock time (cpu1) :      0.235 s.
------------------------------------------------------------

------------------------------------------------------------
          Begin self-consistency loop: Initialization.

          Date     :  20140812, Time     :  111404.591
------------------------------------------------------------

  Initializing index lists of integration centers etc. from given atomic structure:
  | Number of centers in hartree potential         :         2
  | Number of centers in hartree multipole         :         2
  | Number of centers in electron density summation:         2
  | Number of centers in basis integrals           :         2
  | Number of centers in integrals                 :         2
  Partitioning the integration grid into batches with parallel hashing+maxmin method.
  | Number of batches:     1969
  | Maximal batch size:     150
  | Minimal batch size:      65
  | Average batch size:      73.339
  | Standard deviation of batch sizes:      14.435

  Integration load balanced across     4 MPI tasks.
  Work distribution over tasks is as follows:
  Task     0 has      36140 integration points.
  Task     1 has      36097 integration points.
  Task     2 has      36096 integration points.
  Task     3 has      36071 integration points.
  Initializing partition tables, free-atom densities, potentials, etc. across the integration grid (initialize_grid_storage).
  | Original list of interatomic distances with           2 x          2 entries is created.
  | Net number of integration points:   144404
  | of which are non-zero points    :   128932
  Obtaining max. number of non-zero basis functions in each batch (get_n_compute_maxes).
  | Maximal number of non-zero basis functions:       62 in task     0
  | Maximal number of non-zero basis functions:       62 in task     1
  | Maximal number of non-zero basis functions:       62 in task     2
  | Maximal number of non-zero basis functions:       62 in task     3
  Selecting the method for density update.
  Loop over occupied states selected for charge density update.
  Integrating Hamiltonian matrix: batch-based integration.
  Time summed over all CPUs for integration: real work        1.188 s, elapsed        1.249 s
  Integrating overlap matrix.
  Time summed over all CPUs for integration: real work        0.754 s, elapsed        0.794 s

  Updating Kohn-Sham eigenvalues, eigenvectors, occupation numbers, and Fermi level.
  Solving generalized eigenproblem
  Updating Kohn-Sham eigenvalues and eigenfunctions.
  Transforming overlap matrix and checking for singularities.
  Overlap matrix is singular:
  | Using       61 out of a possible       62 specified basis functions.
  | Lowest remaining eigenvalue:  0.507965E-03
  Solving standard eigenvalue problem for transformed Hamiltonian.
  Determining occupation numbers for Kohn-Sham eigenstates.
  | Chemical potential (Fermi level) in eV                 : -.73353779E+01
  | Error in electron count due to remaining E_F inaccuracy: 0.00000000E+00
  | Maximum occupation number of highest empty state:  0.00E+00

  Writing Kohn-Sham eigenvalues.

  State    Occupation    Eigenvalue [Ha]    Eigenvalue [eV]
      1       2.00000          -0.521878          -14.20103
      2       0.00000          -0.017262           -0.46972
      3       0.00000           0.035021            0.95298
      4       0.00000           0.147251            4.00690
      5       0.00000           0.147251            4.00690
      6       0.00000           0.222828            6.06345
      7       0.00000           0.388446           10.57016
      8       0.00000           0.388446           10.57016
      9       0.00000           0.394200           10.72673
     10       0.00000           0.544426           14.81459
     11       0.00000           0.859567           23.39000
     12       0.00000           0.859567           23.39000
     13       0.00000           0.981131           26.69794
     14       0.00000           1.186243           32.27931
     15       0.00000           1.186243           32.27931
     16       0.00000           1.266720           34.46920
     17       0.00000           1.355492           36.88482
     18       0.00000           1.355492           36.88482
     19       0.00000           1.391475           37.86397
     20       0.00000           1.472677           40.07358
     21       0.00000           1.472677           40.07359
     22       0.00000           1.514713           41.21743
     23       0.00000           1.514713           41.21743
     24       0.00000           2.248394           61.18191
     25       0.00000           2.808749           76.42994
     26       0.00000           2.808749           76.42994
     27       0.00000           2.920698           79.47623
     28       0.00000           2.920698           79.47623
     29       0.00000           3.231002           87.92005
     30       0.00000           3.429022           93.30845
     31       0.00000           3.728863          101.46753
     32       0.00000           3.728864          101.46756
     33       0.00000           4.227208          115.02819
     34       0.00000           4.227208          115.02819
     35       0.00000           4.354182          118.48333
     36       0.00000           4.594212          125.01488
     37       0.00000           4.594212          125.01488
     38       0.00000           4.646465          126.43676
     39       0.00000           4.646466          126.43676
     40       0.00000           4.948134          134.64557
     41       0.00000           4.948134          134.64557
     42       0.00000           5.044991          137.28118
     43       0.00000           5.545895          150.91147
     44       0.00000           5.545895          150.91147
     45       0.00000           5.940629          161.65274
     46       0.00000           5.940629          161.65274
     47       0.00000           6.131728          166.85282
     48       0.00000           7.199216          195.90064
     49       0.00000           7.199221          195.90077
     50       0.00000           7.317499          199.11927
     51       0.00000           8.830712          240.29589
     52       0.00000           8.830712          240.29589
     53       0.00000           9.858616          268.26658
     54       0.00000           9.858616          268.26658
     55       0.00000          11.774511          320.40074
     56       0.00000          14.833096          403.62907
     57       0.00000          16.533569          449.90130
     58       0.00000          16.533569          449.90130
     59       0.00000          19.190322          522.19522
     60       0.00000          26.574394          723.12604
     61       0.00000          27.127882          738.18722

  Highest occupied state (VBM) at    -14.20103267 eV
  | Occupation number:      2.00000000

  Lowest unoccupied state (CBM) at    -0.46972317 eV
  | Occupation number:      0.00000000

  Overall HOMO-LUMO gap:     13.73130951 eV.
  Calculating total energy contributions from superposition of free atom densities.

  Total energy components:
  | Sum of eigenvalues            :          -1.04375672 Ha         -28.40206535 eV
  | XC energy correction          :          -0.53508663 Ha         -14.56044801 eV
  | XC potential correction       :           0.69801100 Ha          18.99384580 eV
  | Free-atom electrostatic energy:          -0.28660007 Ha          -7.79878484 eV
  | Hartree energy correction     :           0.00000000 Ha           0.00000000 eV
  | Entropy correction            :           0.00000000 Ha           0.00000000 eV
  | ---------------------------
  | Total energy                  :          -1.16743242 Ha         -31.76745239 eV
  | Total energy, T -> 0          :          -1.16743242 Ha         -31.76745239 eV  <-- do not rely on this value for anything but (periodic) metals
  | Electronic free energy        :          -1.16743242 Ha         -31.76745239 eV

  Derived energy quantities:
  | Kinetic energy                :           0.61531085 Ha          16.74346001 eV
  | Electrostatic energy          :          -1.24765663 Ha         -33.95046439 eV
  | Energy correction for multipole
  | error in Hartree potential    :           0.00000000 Ha           0.00000000 eV
  | Sum of eigenvalues per atom                           :         -14.20103267 eV
  | Total energy (T->0) per atom                          :         -15.88372620 eV  <-- do not rely on this value for anything but (periodic) metals
  | Electronic free energy per atom                       :         -15.88372620 eV
 
 --------------------------------------------
  Constructing auxiliary basis (full product) ...
 
  Product basis:
  | charge radius: extent of product basis function
  | field radius: extent of its Coulomb potential
  | Species   l  charge radius    field radius  multipol momen
  |    H      5     4.813203 A      4.813203 A  2.676041E-15 a.u.
  |    H      4     4.932336 A      4.932336 A  2.417679E-16 a.u.
  |    H      3     5.054418 A      5.054418 A  ************ a.u.
  |    H      4     5.054418 A      5.054418 A  ************ a.u.
  |    H      3     5.116587 A      5.116587 A  1.642688E-15 a.u.
  |    H      2     5.179521 A      5.179521 A  6.126280E-16 a.u.
  |    H      3     5.179521 A      5.179521 A  ************ a.u.
  |    H      2     5.243229 A      5.243229 A  1.485543E-16 a.u.
  |    H      2     5.243229 A      5.243229 A  1.683301E-16 a.u.
  |    H      2     5.243229 A      5.243229 A  ************ a.u.
  |    H      3     5.243229 A      5.243229 A  ************ a.u.
  |    H      1     5.307721 A      5.307721 A  2.416866E-16 a.u.
  |    H      1     5.307721 A      5.307721 A  1.291012E-16 a.u.
  |    H      2     5.307721 A      5.307721 A  7.871382E-16 a.u.
  |    H      0     5.373006 A      5.373006 A  9.519909E-17 a.u.
  |    H      1     5.373006 A      5.373006 A  2.334090E-16 a.u.
  |    H      1     5.373006 A      5.373006 A  ************ a.u.
  |    H      1     5.373006 A      5.373006 A  ************ a.u.
  |    H      1     5.373006 A      5.373006 A  1.823473E-16 a.u.
  |    H      0     5.373006 A      5.439094 A  ************ a.u.
  |    H      0     5.439094 A      5.439094 A  ************ a.u.
  |    H      0     5.439094 A      5.505995 A  9.305319E-17 a.u.
  |    H      0     5.439094 A      5.505995 A  4.082184E-17 a.u.
  |    H      0     5.439094 A      5.505995 A  3.169850E-16 a.u.
  |    H      0     5.439094 A      5.505995 A  2.711689E-16 a.u.
  |    H      5     4.872405 A  1.325110E+02 A           19.619780 a.u.
  |    H      4     5.054418 A  3.771796E+02 A           14.639479 a.u.
  |    H      3     5.243229 A  1.836978E+03 A           11.555842 a.u.
  |    H      2     5.307721 A  2.095310E+04 A            4.940052 a.u.
  |    H      1     5.373006 A  2.512347E+06 A            1.793689 a.u.
  |    H      0     5.439094 A  4.604132E+12 A            0.692368 a.u.

  | Shrink_full_auxil_basis : there are       31  radial auxiliary wave functions
                            accepted and      90 rejected.
  | Shrink_full_auxil_basis : there are totally     286 partial auxiliary wave functions.
 
  | Number of product basis functions per thread :    72
  | Minimal requirement for computer memories :           0.005 Gbs
 
  Basis pair condensation :      1953  -->       1953
 
 ----------------------------------------------------
  Integrating the 3-basis-function Coulomb matrix ...
  | i_atom:            1
  | i_atom:            2
  Integrating the Coulomb interaction matrix for auxiliary basis functions (by atoms)

  SBT integration errors (all should be 'small'):
  large logFT aliasing -> increase N/lnrange
  large SBT aliasing -> decrease lnk0 & increase lnk0+lnrange
  large SBT ringing -> decrease lnr0 & increase lnr0+lnrange
  |            El't  L: logFT-al.   small-k   large-k   small-r   large-r
  Atomic logSBT for 2-center Coulomb matrix    :  max(cpu_time)    wall_clock(cpu1)
  | Multiplication with kernel                 :        0.020 s           0.010 s
  | Main matrix multiplication                 :        0.064 s           0.044 s
  | Analytic angular integration               :        0.004 s           0.001 s
  | Kernel construction                        :        0.008 s           0.002 s
  | Overall 2-center overlap time              :        0.096 s           0.062 s

  Difference of Coulomb matrix to its transposed:  3.3307E-16
  Task     0: Eigenvalues of the Coulomb matrix range from    2.0000E+00 to    3.7584E-11.
  Task     0: Using      273   eigenvalues out of rank      286   Coulomb matrix (auxiliary basis).
  Task     0: Still using eigenvalue     1.4278E-05 while cutting     7.0904E-06 in Coulomb matrix.
 
  Multiplying V^-0.5 x ovlp_3fn (1d-scalapack)

  Initialize hartree_potential_storage
  Max. number of atoms included in rho_multipole:            2

  End scf initialization - timings             :  max(cpu_time)    wall_clock(cpu1)
  | Time for scf. initialization               :       24.070 s          24.094 s
  | Boundary condition initialization          :        0.000 s           0.000 s
  | Integration                                :        0.512 s           0.511 s
  | Solution of K.-S. eqns.                    :        0.008 s           0.007 s
  | Grid partitioning                          :        0.252 s           0.251 s
  | Preloading free-atom quantities on grid    :        0.072 s           0.069 s
  | Free-atom superposition energy             :        0.040 s           0.037 s
  | Total energy evaluation                    :        0.000 s           0.000 s
  | Product basis setup: Total time            :       23.105 s          23.131 s
  | Product basis: | 3-center integrations     :       22.641 s          22.660 s
  | Product basis: | 2-center integrations     :        0.256 s           0.255 s
  | Product basis: | 2-center linear algebra   :        0.072 s           0.070 s
  | Product basis: | 3-center x 2-center       :        0.028 s           0.026 s
------------------------------------------------------------

------------------------------------------------------------
          Begin self-consistency iteration #    1

  Date     :  20140812, Time     :  111428.685
------------------------------------------------------------
  Evaluating new KS density.
  Integration grid: deviation in total charge (<rho> - N_e) =  -3.108624E-15
  Pulay mixing of updated and previous charge densities.

  Evaluating partitioned Hartree potential by multipole expansion.
  | Analytical far-field extrapolation by fixed multipoles:
  | Hartree multipole sum: apparent total charge =  -0.919251E-07
  Summing up the Hartree potential.
  Time summed over all CPUs for potential: real work        0.953 s, elapsed        0.981 s
  | RMS charge density error from multipole expansion :   0.104746E-02

  Integrating Hamiltonian matrix: batch-based integration.
  Time summed over all CPUs for integration: real work        1.018 s, elapsed        1.031 s
  Evaluating the exchange matrix ... 

  Updating Kohn-Sham eigenvalues, eigenvectors, occupation numbers, and Fermi level.
  Solving generalized eigenproblem
  Updating Kohn-Sham eigenvalues and eigenfunctions.
  Solving standard eigenvalue problem for transformed Hamiltonian.
  Determining occupation numbers for Kohn-Sham eigenstates.
  | Chemical potential (Fermi level) in eV                 : -.75314491E+01
  | Error in electron count due to remaining E_F inaccuracy: 0.00000000E+00
  | Maximum occupation number of highest empty state:  0.00E+00

  Writing Kohn-Sham eigenvalues.

  State    Occupation    Eigenvalue [Ha]    Eigenvalue [eV]
      1       2.00000          -0.675922          -18.39278
      2       0.00000           0.122371            3.32988
      3       0.00000           0.134891            3.67058
      4       0.00000           0.356108            9.69019
      5       0.00000           0.356108            9.69019
      6       0.00000           0.418859           11.39774
      7       0.00000           0.551380           15.00381
      8       0.00000           0.551380           15.00381
      9       0.00000           0.565280           15.38206
     10       0.00000           0.758289           20.63410
     11       0.00000           1.121704           30.52312
     12       0.00000           1.121704           30.52312
     13       0.00000           1.290079           35.10485
     14       0.00000           1.508472           41.04761
     15       0.00000           1.520074           41.36333
     16       0.00000           1.520074           41.36333
     17       0.00000           1.624711           44.21065
     18       0.00000           1.624711           44.21065
     19       0.00000           1.677737           45.65355
     20       0.00000           1.732160           47.13447
     21       0.00000           1.732160           47.13448
     22       0.00000           1.796192           48.87687
     23       0.00000           1.796192           48.87687
     24       0.00000           2.634109           71.67776
     25       0.00000           3.168483           86.21882
     26       0.00000           3.168483           86.21882
     27       0.00000           3.291682           89.57122
     28       0.00000           3.291682           89.57122
     29       0.00000           3.652702           99.39509
     30       0.00000           3.915360          106.54238
     31       0.00000           4.158465          113.15759
     32       0.00000           4.158466          113.15761
     33       0.00000           4.597453          125.10305
     34       0.00000           4.597453          125.10305
     35       0.00000           4.737982          128.92705
     36       0.00000           5.005863          136.21647
     37       0.00000           5.005863          136.21647
     38       0.00000           5.075125          138.10117
     39       0.00000           5.075125          138.10117
     40       0.00000           5.481874          149.16939
     41       0.00000           5.481874          149.16939
     42       0.00000           5.511762          149.98267
     43       0.00000           5.954035          162.01755
     44       0.00000           5.954036          162.01755
     45       0.00000           6.349827          172.78757
     46       0.00000           6.349827          172.78757
     47       0.00000           6.596770          179.50723
     48       0.00000           7.694832          209.38703
     49       0.00000           7.694837          209.38716
     50       0.00000           7.907806          215.18235
     51       0.00000           9.410776          256.08024
     52       0.00000           9.410776          256.08024
     53       0.00000          10.477184          285.09869
     54       0.00000          10.477184          285.09869
     55       0.00000          12.466101          339.21987
     56       0.00000          15.525473          422.46962
     57       0.00000          17.175722          467.37518
     58       0.00000          17.175722          467.37518
     59       0.00000          19.785227          538.38341
     60       0.00000          27.301844          742.92096
     61       0.00000          27.867577          758.31536

  Highest occupied state (VBM) at    -18.39277516 eV
  | Occupation number:      2.00000000

  Lowest unoccupied state (CBM) at     3.32987705 eV
  | Occupation number:      0.00000000

  Overall HOMO-LUMO gap:     21.72265221 eV.

  Total energy components:
  | Sum of eigenvalues            :          -1.35184413 Ha         -36.78555032 eV
  | XC energy correction          :           0.71377427 Ha          19.42278602 eV
  | XC potential correction       :           0.00000000 Ha           0.00000000 eV
  | Free-atom electrostatic energy:          -0.28660007 Ha          -7.79878484 eV
  | Hartree energy correction     :          -0.21347764 Ha          -5.80902210 eV
  | Entropy correction            :           0.00000000 Ha           0.00000000 eV
  | ---------------------------
  | Total energy                  :          -1.13814757 Ha         -30.97057123 eV
  | Total energy, T -> 0          :          -1.13814757 Ha         -30.97057123 eV  <-- do not rely on this value for anything but (periodic) metals
  | Electronic free energy        :          -1.13814757 Ha         -30.97057123 eV

  Derived energy quantities:
  | Kinetic energy                :           1.12851306 Ha          30.70840278 eV
  | Electrostatic energy          :          -1.55288637 Ha         -42.25618799 eV
  | Energy correction for multipole
  | error in Hartree potential    :          -0.00009957 Ha          -0.00270941 eV
  | Sum of eigenvalues per atom                           :         -18.39277516 eV
  | Total energy (T->0) per atom                          :         -15.48528562 eV  <-- do not rely on this value for anything but (periodic) metals
  | Electronic free energy per atom                       :         -15.48528562 eV

  Self-consistency convergence accuracy:
  | Change of charge density      : 0.1963E+00
  | Change of sum of eigenvalues  : -.8383E+01 eV
  | Change of total energy        : 0.7969E+00 eV

  End self-consistency iteration #     1       :  max(cpu_time)    wall_clock(cpu1)
  | Time for this iteration                    :        0.728 s           0.728 s
  | Charge density update                      :        0.140 s           0.141 s
  | Density mixing                             :        0.004 s           0.003 s
  | Hartree multipole update                   :        0.064 s           0.063 s
  | Hartree multipole summation                :        0.248 s           0.246 s
  | Integration                                :        0.260 s           0.258 s
  | Fock matrix evaluation                     :        0.012 s           0.012 s
  | Solution of K.-S. eqns.                    :        0.004 s           0.003 s
  | Total energy evaluation                    :        0.000 s           0.000 s
------------------------------------------------------------

------------------------------------------------------------
          Begin self-consistency iteration #    2

  Date     :  20140812, Time     :  111429.413
------------------------------------------------------------
  Evaluating new KS density.
  Integration grid: deviation in total charge (<rho> - N_e) =  -8.881784E-16
  Pulay mixing of updated and previous charge densities.

  Evaluating partitioned Hartree potential by multipole expansion.
  | Analytical far-field extrapolation by fixed multipoles:
  | Hartree multipole sum: apparent total charge =  -0.925419E-07
  Summing up the Hartree potential.
  Time summed over all CPUs for potential: real work        0.940 s, elapsed        0.951 s
  | RMS charge density error from multipole expansion :   0.172783E-02

  Integrating Hamiltonian matrix: batch-based integration.
  Time summed over all CPUs for integration: real work        1.017 s, elapsed        1.050 s
  Evaluating the exchange matrix ... 

  Updating Kohn-Sham eigenvalues, eigenvectors, occupation numbers, and Fermi level.
  Solving generalized eigenproblem
  Updating Kohn-Sham eigenvalues and eigenfunctions.
  Solving standard eigenvalue problem for transformed Hamiltonian.
  Determining occupation numbers for Kohn-Sham eigenstates.
  | Chemical potential (Fermi level) in eV                 : -.63530790E+01
  | Error in electron count due to remaining E_F inaccuracy: 0.00000000E+00
  | Maximum occupation number of highest empty state:  0.00E+00

  Highest occupied state (VBM) at    -16.15612940 eV
  | Occupation number:      2.00000000

  Lowest unoccupied state (CBM) at     3.44997131 eV
  | Occupation number:      0.00000000

  Overall HOMO-LUMO gap:     19.60610071 eV.

  Total energy components:
  | Sum of eigenvalues            :          -1.18745369 Ha         -32.31225880 eV
  | XC energy correction          :           0.70925428 Ha          19.29979079 eV
  | XC potential correction       :           0.00000000 Ha           0.00000000 eV
  | Free-atom electrostatic energy:          -0.28660007 Ha          -7.79878484 eV
  | Hartree energy correction     :          -0.36695340 Ha          -9.98531006 eV
  | Entropy correction            :           0.00000000 Ha           0.00000000 eV
  | ---------------------------
  | Total energy                  :          -1.13175288 Ha         -30.79656291 eV
  | Total energy, T -> 0          :          -1.13175288 Ha         -30.79656291 eV  <-- do not rely on this value for anything but (periodic) metals
  | Electronic free energy        :          -1.13175288 Ha         -30.79656291 eV

  Derived energy quantities:
  | Kinetic energy                :           1.27756959 Ha          34.76443735 eV
  | Electrostatic energy          :          -1.70006820 Ha         -46.26120947 eV
  | Energy correction for multipole
  | error in Hartree potential    :          -0.00013394 Ha          -0.00364460 eV
  | Sum of eigenvalues per atom                           :         -16.15612940 eV
  | Total energy (T->0) per atom                          :         -15.39828146 eV  <-- do not rely on this value for anything but (periodic) metals
  | Electronic free energy per atom                       :         -15.39828146 eV

  Self-consistency convergence accuracy:
  | Change of charge density      : 0.7266E-01
  | Change of sum of eigenvalues  : 0.4473E+01 eV
  | Change of total energy        : 0.1740E+00 eV

  End self-consistency iteration #     2       :  max(cpu_time)    wall_clock(cpu1)
  | Time for this iteration                    :        0.716 s           0.715 s
  | Charge density update                      :        0.132 s           0.129 s
  | Density mixing                             :        0.004 s           0.004 s
  | Hartree multipole update                   :        0.060 s           0.058 s
  | Hartree multipole summation                :        0.240 s           0.239 s
  | Integration                                :        0.264 s           0.263 s
  | Fock matrix evaluation                     :        0.016 s           0.016 s
  | Solution of K.-S. eqns.                    :        0.004 s           0.004 s
  | Total energy evaluation                    :        0.000 s           0.001 s
------------------------------------------------------------

------------------------------------------------------------
          Begin self-consistency iteration #    3

  Date     :  20140812, Time     :  111430.129
------------------------------------------------------------
  Evaluating new KS density.
  Integration grid: deviation in total charge (<rho> - N_e) =  -5.773160E-15
  Pulay mixing of updated and previous charge densities.

  Evaluating partitioned Hartree potential by multipole expansion.
  | Analytical far-field extrapolation by fixed multipoles:
  | Hartree multipole sum: apparent total charge =  -0.905992E-07
  Summing up the Hartree potential.
  Time summed over all CPUs for potential: real work        0.939 s, elapsed        0.953 s
  | RMS charge density error from multipole expansion :   0.150129E-02

  Integrating Hamiltonian matrix: batch-based integration.
  Time summed over all CPUs for integration: real work        1.010 s, elapsed        1.031 s
  Evaluating the exchange matrix ... 

  Updating Kohn-Sham eigenvalues, eigenvectors, occupation numbers, and Fermi level.
  Solving generalized eigenproblem
  Updating Kohn-Sham eigenvalues and eigenfunctions.
  Solving standard eigenvalue problem for transformed Hamiltonian.
  Determining occupation numbers for Kohn-Sham eigenstates.
  | Chemical potential (Fermi level) in eV                 : -.66142576E+01
  | Error in electron count due to remaining E_F inaccuracy: 0.00000000E+00
  | Maximum occupation number of highest empty state:  0.00E+00

  Highest occupied state (VBM) at    -16.62306241 eV
  | Occupation number:      2.00000000

  Lowest unoccupied state (CBM) at     3.39454729 eV
  | Occupation number:      0.00000000

  Overall HOMO-LUMO gap:     20.01760970 eV.

  Total energy components:
  | Sum of eigenvalues            :          -1.22177263 Ha         -33.24612482 eV
  | XC energy correction          :           0.68617113 Ha          18.67166649 eV
  | XC potential correction       :           0.00000000 Ha           0.00000000 eV
  | Free-atom electrostatic energy:          -0.28660007 Ha          -7.79878484 eV
  | Hartree energy correction     :          -0.31568035 Ha          -8.59009934 eV
  | Entropy correction            :           0.00000000 Ha           0.00000000 eV
  | ---------------------------
  | Total energy                  :          -1.13788192 Ha         -30.96334252 eV
  | Total energy, T -> 0          :          -1.13788192 Ha         -30.96334252 eV  <-- do not rely on this value for anything but (periodic) metals
  | Electronic free energy        :          -1.13788192 Ha         -30.96334252 eV

  Derived energy quantities:
  | Kinetic energy                :           1.19475371 Ha          32.51090252 eV
  | Electrostatic energy          :          -1.64646450 Ha         -44.80257855 eV
  | Energy correction for multipole
  | error in Hartree potential    :          -0.00009837 Ha          -0.00267687 eV
  | Sum of eigenvalues per atom                           :         -16.62306241 eV
  | Total energy (T->0) per atom                          :         -15.48167126 eV  <-- do not rely on this value for anything but (periodic) metals
  | Electronic free energy per atom                       :         -15.48167126 eV

  Self-consistency convergence accuracy:
  | Change of charge density      : 0.2587E-01
  | Change of sum of eigenvalues  : -.9339E+00 eV
  | Change of total energy        : -.1668E+00 eV

  End self-consistency iteration #     3       :  max(cpu_time)    wall_clock(cpu1)
  | Time for this iteration                    :        0.720 s           0.718 s
  | Charge density update                      :        0.140 s           0.137 s
  | Density mixing                             :        0.008 s           0.007 s
  | Hartree multipole update                   :        0.060 s           0.060 s
  | Hartree multipole summation                :        0.240 s           0.239 s
  | Integration                                :        0.260 s           0.259 s
  | Fock matrix evaluation                     :        0.012 s           0.012 s
  | Solution of K.-S. eqns.                    :        0.004 s           0.003 s
  | Total energy evaluation                    :        0.000 s           0.000 s
------------------------------------------------------------

------------------------------------------------------------
          Begin self-consistency iteration #    4

  Date     :  20140812, Time     :  111430.847
------------------------------------------------------------
  Evaluating new KS density.
  Integration grid: deviation in total charge (<rho> - N_e) =  -8.437695E-15
  Pulay mixing of updated and previous charge densities.

  Evaluating partitioned Hartree potential by multipole expansion.
  | Analytical far-field extrapolation by fixed multipoles:
  | Hartree multipole sum: apparent total charge =  -0.967049E-07
  Summing up the Hartree potential.
  Time summed over all CPUs for potential: real work        0.952 s, elapsed        0.965 s
  | RMS charge density error from multipole expansion :   0.146507E-02

  Integrating Hamiltonian matrix: batch-based integration.
  Time summed over all CPUs for integration: real work        1.009 s, elapsed        1.017 s
  Evaluating the exchange matrix ... 

  Updating Kohn-Sham eigenvalues, eigenvectors, occupation numbers, and Fermi level.
  Solving generalized eigenproblem
  Updating Kohn-Sham eigenvalues and eigenfunctions.
  Solving standard eigenvalue problem for transformed Hamiltonian.
  Determining occupation numbers for Kohn-Sham eigenstates.
  | Chemical potential (Fermi level) in eV                 : -.65876176E+01
  | Error in electron count due to remaining E_F inaccuracy: 0.00000000E+00
  | Maximum occupation number of highest empty state:  0.00E+00

  Highest occupied state (VBM) at    -16.54631717 eV
  | Occupation number:      2.00000000

  Lowest unoccupied state (CBM) at     3.37108194 eV
  | Occupation number:      0.00000000

  Overall HOMO-LUMO gap:     19.91739911 eV.

  Total energy components:
  | Sum of eigenvalues            :          -1.21613196 Ha         -33.09263434 eV
  | XC energy correction          :           0.67928526 Ha          18.48429245 eV
  | XC potential correction       :           0.00000000 Ha           0.00000000 eV
  | Free-atom electrostatic energy:          -0.28660007 Ha          -7.79878484 eV
  | Hartree energy correction     :          -0.30758881 Ha          -8.36991749 eV
  | Entropy correction            :           0.00000000 Ha           0.00000000 eV
  | ---------------------------
  | Total energy                  :          -1.13103559 Ha         -30.77704422 eV
  | Total energy, T -> 0          :          -1.13103559 Ha         -30.77704422 eV  <-- do not rely on this value for anything but (periodic) metals
  | Electronic free energy        :          -1.13103559 Ha         -30.77704422 eV

  Derived energy quantities:
  | Kinetic energy                :           1.18086682 Ha          32.13302111 eV
  | Electrostatic energy          :          -1.63261715 Ha         -44.42577288 eV
  | Energy correction for multipole
  | error in Hartree potential    :          -0.00007771 Ha          -0.00211457 eV
  | Sum of eigenvalues per atom                           :         -16.54631717 eV
  | Total energy (T->0) per atom                          :         -15.38852211 eV  <-- do not rely on this value for anything but (periodic) metals
  | Electronic free energy per atom                       :         -15.38852211 eV

  Self-consistency convergence accuracy:
  | Change of charge density      : 0.1685E-02
  | Change of sum of eigenvalues  : 0.1535E+00 eV
  | Change of total energy        : 0.1863E+00 eV

  End self-consistency iteration #     4       :  max(cpu_time)    wall_clock(cpu1)
  | Time for this iteration                    :        0.712 s           0.713 s
  | Charge density update                      :        0.128 s           0.128 s
  | Density mixing                             :        0.012 s           0.011 s
  | Hartree multipole update                   :        0.064 s           0.060 s
  | Hartree multipole summation                :        0.244 s           0.243 s
  | Integration                                :        0.256 s           0.254 s
  | Fock matrix evaluation                     :        0.012 s           0.012 s
  | Solution of K.-S. eqns.                    :        0.004 s           0.004 s
  | Total energy evaluation                    :        0.000 s           0.001 s
------------------------------------------------------------

------------------------------------------------------------
          Begin self-consistency iteration #    5

  Date     :  20140812, Time     :  111431.561
------------------------------------------------------------
  Evaluating new KS density.
  Integration grid: deviation in total charge (<rho> - N_e) =  -1.776357E-15
  Pulay mixing of updated and previous charge densities.

  Evaluating partitioned Hartree potential by multipole expansion.
  | Analytical far-field extrapolation by fixed multipoles:
  | Hartree multipole sum: apparent total charge =  -0.973474E-07
  Summing up the Hartree potential.
  Time summed over all CPUs for potential: real work        0.940 s, elapsed        0.946 s
  | RMS charge density error from multipole expansion :   0.145296E-02

  Integrating Hamiltonian matrix: batch-based integration.
  Time summed over all CPUs for integration: real work        1.016 s, elapsed        1.027 s
  Evaluating the exchange matrix ... 

  Updating Kohn-Sham eigenvalues, eigenvectors, occupation numbers, and Fermi level.
  Solving generalized eigenproblem
  Updating Kohn-Sham eigenvalues and eigenfunctions.
  Solving standard eigenvalue problem for transformed Hamiltonian.
  Determining occupation numbers for Kohn-Sham eigenstates.
  | Chemical potential (Fermi level) in eV                 : -.65949086E+01
  | Error in electron count due to remaining E_F inaccuracy: 0.00000000E+00
  | Maximum occupation number of highest empty state:  0.00E+00

  Highest occupied state (VBM) at    -16.55011641 eV
  | Occupation number:      2.00000000

  Lowest unoccupied state (CBM) at     3.36029928 eV
  | Occupation number:      0.00000000

  Overall HOMO-LUMO gap:     19.91041570 eV.

  Total energy components:
  | Sum of eigenvalues            :          -1.21641120 Ha         -33.10023282 eV
  | XC energy correction          :           0.67427110 Ha          18.34785023 eV
  | XC potential correction       :           0.00000000 Ha           0.00000000 eV
  | Free-atom electrostatic energy:          -0.28660007 Ha          -7.79878484 eV
  | Hartree energy correction     :          -0.30330932 Ha          -8.25346647 eV
  | Entropy correction            :           0.00000000 Ha           0.00000000 eV
  | ---------------------------
  | Total energy                  :          -1.13204949 Ha         -30.80463390 eV
  | Total energy, T -> 0          :          -1.13204949 Ha         -30.80463390 eV  <-- do not rely on this value for anything but (periodic) metals
  | Electronic free energy        :          -1.13204949 Ha         -30.80463390 eV

  Derived energy quantities:
  | Kinetic energy                :           1.17134198 Ha          31.87383710 eV
  | Electrostatic energy          :          -1.62912037 Ha         -44.33062076 eV
  | Energy correction for multipole
  | error in Hartree potential    :          -0.00007695 Ha          -0.00209394 eV
  | Sum of eigenvalues per atom                           :         -16.55011641 eV
  | Total energy (T->0) per atom                          :         -15.40231695 eV  <-- do not rely on this value for anything but (periodic) metals
  | Electronic free energy per atom                       :         -15.40231695 eV

  Self-consistency convergence accuracy:
  | Change of charge density      : 0.4562E-03
  | Change of sum of eigenvalues  : -.7598E-02 eV
  | Change of total energy        : -.2759E-01 eV

  End self-consistency iteration #     5       :  max(cpu_time)    wall_clock(cpu1)
  | Time for this iteration                    :        0.712 s           0.711 s
  | Charge density update                      :        0.128 s           0.126 s
  | Density mixing                             :        0.016 s           0.015 s
  | Hartree multipole update                   :        0.060 s           0.059 s
  | Hartree multipole summation                :        0.240 s           0.238 s
  | Integration                                :        0.256 s           0.257 s
  | Fock matrix evaluation                     :        0.012 s           0.012 s
  | Solution of K.-S. eqns.                    :        0.004 s           0.003 s
  | Total energy evaluation                    :        0.000 s           0.000 s
------------------------------------------------------------

------------------------------------------------------------
          Begin self-consistency iteration #    6

  Date     :  20140812, Time     :  111432.273
------------------------------------------------------------
  Evaluating new KS density.
  Integration grid: deviation in total charge (<rho> - N_e) =   6.217249E-15
  Pulay mixing of updated and previous charge densities.

  Evaluating partitioned Hartree potential by multipole expansion.
  | Analytical far-field extrapolation by fixed multipoles:
  | Hartree multipole sum: apparent total charge =  -0.979397E-07
  Summing up the Hartree potential.
  Time summed over all CPUs for potential: real work        0.939 s, elapsed        0.948 s
  | RMS charge density error from multipole expansion :   0.145747E-02

  Integrating Hamiltonian matrix: batch-based integration.
  Time summed over all CPUs for integration: real work        1.006 s, elapsed        1.018 s
  Evaluating the exchange matrix ... 

  Updating Kohn-Sham eigenvalues, eigenvectors, occupation numbers, and Fermi level.
  Solving generalized eigenproblem
  Updating Kohn-Sham eigenvalues and eigenfunctions.
  Solving standard eigenvalue problem for transformed Hamiltonian.
  Determining occupation numbers for Kohn-Sham eigenstates.
  | Chemical potential (Fermi level) in eV                 : -.65841008E+01
  | Error in electron count due to remaining E_F inaccuracy: 0.00000000E+00
  | Maximum occupation number of highest empty state:  0.00E+00

  Highest occupied state (VBM) at    -16.53087619 eV
  | Occupation number:      2.00000000

  Lowest unoccupied state (CBM) at     3.36267456 eV
  | Occupation number:      0.00000000

  Overall HOMO-LUMO gap:     19.89355074 eV.

  Total energy components:
  | Sum of eigenvalues            :          -1.21499707 Ha         -33.06175237 eV
  | XC energy correction          :           0.67382252 Ha          18.33564376 eV
  | XC potential correction       :           0.00000000 Ha           0.00000000 eV
  | Free-atom electrostatic energy:          -0.28660007 Ha          -7.79878484 eV
  | Hartree energy correction     :          -0.30492659 Ha          -8.29747465 eV
  | Entropy correction            :           0.00000000 Ha           0.00000000 eV
  | ---------------------------
  | Total energy                  :          -1.13270121 Ha         -30.82236810 eV
  | Total energy, T -> 0          :          -1.13270121 Ha         -30.82236810 eV  <-- do not rely on this value for anything but (periodic) metals
  | Electronic free energy        :          -1.13270121 Ha         -30.82236810 eV

  Derived energy quantities:
  | Kinetic energy                :           1.17079816 Ha          31.85903900 eV
  | Electrostatic energy          :          -1.62967685 Ha         -44.34576335 eV
  | Energy correction for multipole
  | error in Hartree potential    :          -0.00007504 Ha          -0.00204183 eV
  | Sum of eigenvalues per atom                           :         -16.53087619 eV
  | Total energy (T->0) per atom                          :         -15.41118405 eV  <-- do not rely on this value for anything but (periodic) metals
  | Electronic free energy per atom                       :         -15.41118405 eV

  Self-consistency convergence accuracy:
  | Change of charge density      : 0.6344E-03
  | Change of sum of eigenvalues  : 0.3848E-01 eV
  | Change of total energy        : -.1773E-01 eV

  End self-consistency iteration #     6       :  max(cpu_time)    wall_clock(cpu1)
  | Time for this iteration                    :        0.720 s           0.718 s
  | Charge density update                      :        0.132 s           0.130 s
  | Density mixing                             :        0.020 s           0.019 s
  | Hartree multipole update                   :        0.060 s           0.060 s
  | Hartree multipole summation                :        0.240 s           0.238 s
  | Integration                                :        0.256 s           0.254 s
  | Fock matrix evaluation                     :        0.012 s           0.012 s
  | Solution of K.-S. eqns.                    :        0.004 s           0.003 s
  | Total energy evaluation                    :        0.000 s           0.001 s
------------------------------------------------------------

------------------------------------------------------------
          Begin self-consistency iteration #    7

  Date     :  20140812, Time     :  111432.991
------------------------------------------------------------
  Evaluating new KS density.
  Integration grid: deviation in total charge (<rho> - N_e) =  -2.220446E-16
  Pulay mixing of updated and previous charge densities.

  Evaluating partitioned Hartree potential by multipole expansion.
  | Analytical far-field extrapolation by fixed multipoles:
  | Hartree multipole sum: apparent total charge =  -0.978844E-07
  Summing up the Hartree potential.
  Time summed over all CPUs for potential: real work        0.947 s, elapsed        0.954 s
  | RMS charge density error from multipole expansion :   0.145663E-02

  Integrating Hamiltonian matrix: batch-based integration.
  Time summed over all CPUs for integration: real work        1.006 s, elapsed        1.020 s
  Evaluating the exchange matrix ... 

  Updating Kohn-Sham eigenvalues, eigenvectors, occupation numbers, and Fermi level.
  Solving generalized eigenproblem
  Updating Kohn-Sham eigenvalues and eigenfunctions.
  Solving standard eigenvalue problem for transformed Hamiltonian.
  Determining occupation numbers for Kohn-Sham eigenstates.
  | Chemical potential (Fermi level) in eV                 : -.65859859E+01
  | Error in electron count due to remaining E_F inaccuracy: 0.00000000E+00
  | Maximum occupation number of highest empty state:  0.00E+00

  Highest occupied state (VBM) at    -16.53380861 eV
  | Occupation number:      2.00000000

  Lowest unoccupied state (CBM) at     3.36183681 eV
  | Occupation number:      0.00000000

  Overall HOMO-LUMO gap:     19.89564542 eV.

  Total energy components:
  | Sum of eigenvalues            :          -1.21521260 Ha         -33.06761721 eV
  | XC energy correction          :           0.67356169 Ha          18.32854615 eV
  | XC potential correction       :           0.00000000 Ha           0.00000000 eV
  | Free-atom electrostatic energy:          -0.28660007 Ha          -7.79878484 eV
  | Hartree energy correction     :          -0.30455128 Ha          -8.28726194 eV
  | Entropy correction            :           0.00000000 Ha           0.00000000 eV
  | ---------------------------
  | Total energy                  :          -1.13280226 Ha         -30.82511783 eV
  | Total energy, T -> 0          :          -1.13280226 Ha         -30.82511783 eV  <-- do not rely on this value for anything but (periodic) metals
  | Electronic free energy        :          -1.13280226 Ha         -30.82511783 eV

  Derived energy quantities:
  | Kinetic energy                :           1.17024223 Ha          31.84391122 eV
  | Electrostatic energy          :          -1.62948280 Ha         -44.34048290 eV
  | Energy correction for multipole
  | error in Hartree potential    :          -0.00007529 Ha          -0.00204887 eV
  | Sum of eigenvalues per atom                           :         -16.53380861 eV
  | Total energy (T->0) per atom                          :         -15.41255892 eV  <-- do not rely on this value for anything but (periodic) metals
  | Electronic free energy per atom                       :         -15.41255892 eV

  Self-consistency convergence accuracy:
  | Change of charge density      : 0.1152E-03
  | Change of sum of eigenvalues  : -.5865E-02 eV
  | Change of total energy        : -.2750E-02 eV

  End self-consistency iteration #     7       :  max(cpu_time)    wall_clock(cpu1)
  | Time for this iteration                    :        0.728 s           0.727 s
  | Charge density update                      :        0.128 s           0.129 s
  | Density mixing                             :        0.028 s           0.026 s
  | Hartree multipole update                   :        0.060 s           0.060 s
  | Hartree multipole summation                :        0.240 s           0.240 s
  | Integration                                :        0.256 s           0.255 s
  | Fock matrix evaluation                     :        0.012 s           0.012 s
  | Solution of K.-S. eqns.                    :        0.004 s           0.004 s
  | Total energy evaluation                    :        0.000 s           0.000 s
------------------------------------------------------------

------------------------------------------------------------
          Begin self-consistency iteration #    8

  Date     :  20140812, Time     :  111433.718
------------------------------------------------------------
  Evaluating new KS density.
  Integration grid: deviation in total charge (<rho> - N_e) =   0.000000E+00
  Pulay mixing of updated and previous charge densities.

  Evaluating partitioned Hartree potential by multipole expansion.
  | Analytical far-field extrapolation by fixed multipoles:
  | Hartree multipole sum: apparent total charge =  -0.978833E-07
  Summing up the Hartree potential.
  Time summed over all CPUs for potential: real work        0.946 s, elapsed        0.957 s
  | RMS charge density error from multipole expansion :   0.145660E-02

  Integrating Hamiltonian matrix: batch-based integration.
  Time summed over all CPUs for integration: real work        1.019 s, elapsed        1.034 s
  Evaluating the exchange matrix ... 

  Updating Kohn-Sham eigenvalues, eigenvectors, occupation numbers, and Fermi level.
  Solving generalized eigenproblem
  Updating Kohn-Sham eigenvalues and eigenfunctions.
  Solving standard eigenvalue problem for transformed Hamiltonian.
  Determining occupation numbers for Kohn-Sham eigenstates.
  | Chemical potential (Fermi level) in eV                 : -.65859744E+01
  | Error in electron count due to remaining E_F inaccuracy: 0.00000000E+00
  | Maximum occupation number of highest empty state:  0.00E+00

  Highest occupied state (VBM) at    -16.53378777 eV
  | Occupation number:      2.00000000

  Lowest unoccupied state (CBM) at     3.36183902 eV
  | Occupation number:      0.00000000

  Overall HOMO-LUMO gap:     19.89562678 eV.

  Total energy components:
  | Sum of eigenvalues            :          -1.21521106 Ha         -33.06757553 eV
  | XC energy correction          :           0.67355735 Ha          18.32842802 eV
  | XC potential correction       :           0.00000000 Ha           0.00000000 eV
  | Free-atom electrostatic energy:          -0.28660007 Ha          -7.79878484 eV
  | Hartree energy correction     :          -0.30454750 Ha          -8.28715913 eV
  | Entropy correction            :           0.00000000 Ha           0.00000000 eV
  | ---------------------------
  | Total energy                  :          -1.13280129 Ha         -30.82509149 eV
  | Total energy, T -> 0          :          -1.13280129 Ha         -30.82509149 eV  <-- do not rely on this value for anything but (periodic) metals
  | Electronic free energy        :          -1.13280129 Ha         -30.82509149 eV

  Derived energy quantities:
  | Kinetic energy                :           1.17023722 Ha          31.84377500 eV
  | Electrostatic energy          :          -1.62948116 Ha         -44.34043847 eV
  | Energy correction for multipole
  | error in Hartree potential    :          -0.00007530 Ha          -0.00204899 eV
  | Sum of eigenvalues per atom                           :         -16.53378777 eV
  | Total energy (T->0) per atom                          :         -15.41254574 eV  <-- do not rely on this value for anything but (periodic) metals
  | Electronic free energy per atom                       :         -15.41254574 eV

  Self-consistency convergence accuracy:
  | Change of charge density      : 0.3419E-05
  | Change of sum of eigenvalues  : 0.4168E-04 eV
  | Change of total energy        : 0.2635E-04 eV

  End self-consistency iteration #     8       :  max(cpu_time)    wall_clock(cpu1)
  | Time for this iteration                    :        0.728 s           0.727 s
  | Charge density update                      :        0.128 s           0.127 s
  | Density mixing                             :        0.024 s           0.025 s
  | Hartree multipole update                   :        0.060 s           0.060 s
  | Hartree multipole summation                :        0.240 s           0.241 s
  | Integration                                :        0.260 s           0.258 s
  | Fock matrix evaluation                     :        0.012 s           0.012 s
  | Solution of K.-S. eqns.                    :        0.004 s           0.004 s
  | Total energy evaluation                    :        0.000 s           0.000 s
------------------------------------------------------------

------------------------------------------------------------
          Begin self-consistency iteration #    9

  Date     :  20140812, Time     :  111434.446
------------------------------------------------------------
  Evaluating new KS density.
  Integration grid: deviation in total charge (<rho> - N_e) =   0.000000E+00
  Pulay mixing of updated and previous charge densities.

  Evaluating partitioned Hartree potential by multipole expansion.
  | Analytical far-field extrapolation by fixed multipoles:
  | Hartree multipole sum: apparent total charge =  -0.978829E-07
  Summing up the Hartree potential.
  Time summed over all CPUs for potential: real work        0.941 s, elapsed        0.951 s
  | RMS charge density error from multipole expansion :   0.145659E-02

  Integrating Hamiltonian matrix: batch-based integration.
  Time summed over all CPUs for integration: real work        1.011 s, elapsed        1.018 s
  Evaluating the exchange matrix ... 

  Updating Kohn-Sham eigenvalues, eigenvectors, occupation numbers, and Fermi level.
  Solving generalized eigenproblem
  Updating Kohn-Sham eigenvalues and eigenfunctions.
  Solving standard eigenvalue problem for transformed Hamiltonian.
  Determining occupation numbers for Kohn-Sham eigenstates.
  | Chemical potential (Fermi level) in eV                 : -.65860029E+01
  | Error in electron count due to remaining E_F inaccuracy: 0.00000000E+00
  | Maximum occupation number of highest empty state:  0.00E+00

  Highest occupied state (VBM) at    -16.53382668 eV
  | Occupation number:      2.00000000

  Lowest unoccupied state (CBM) at     3.36182087 eV
  | Occupation number:      0.00000000

  Overall HOMO-LUMO gap:     19.89564755 eV.

  Total energy components:
  | Sum of eigenvalues            :          -1.21521392 Ha         -33.06765335 eV
  | XC energy correction          :           0.67355667 Ha          18.32840950 eV
  | XC potential correction       :           0.00000000 Ha           0.00000000 eV
  | Free-atom electrostatic energy:          -0.28660007 Ha          -7.79878484 eV
  | Hartree energy correction     :          -0.30454181 Ha          -8.28700437 eV
  | Entropy correction            :           0.00000000 Ha           0.00000000 eV
  | ---------------------------
  | Total energy                  :          -1.13279914 Ha         -30.82503306 eV
  | Total energy, T -> 0          :          -1.13279914 Ha         -30.82503306 eV  <-- do not rely on this value for anything but (periodic) metals
  | Electronic free energy        :          -1.13279914 Ha         -30.82503306 eV

  Derived energy quantities:
  | Kinetic energy                :           1.17023554 Ha          31.84372931 eV
  | Electrostatic energy          :          -1.62947802 Ha         -44.34035287 eV
  | Energy correction for multipole
  | error in Hartree potential    :          -0.00007530 Ha          -0.00204910 eV
  | Sum of eigenvalues per atom                           :         -16.53382668 eV
  | Total energy (T->0) per atom                          :         -15.41251653 eV  <-- do not rely on this value for anything but (periodic) metals
  | Electronic free energy per atom                       :         -15.41251653 eV

  Self-consistency convergence accuracy:
  | Change of charge density      : 0.8104E-06
  | Change of sum of eigenvalues  : -.7782E-04 eV
  | Change of total energy        : 0.5843E-04 eV

  End self-consistency iteration #     9       :  max(cpu_time)    wall_clock(cpu1)
  | Time for this iteration                    :        0.724 s           0.726 s
  | Charge density update                      :        0.128 s           0.126 s
  | Density mixing                             :        0.028 s           0.030 s
  | Hartree multipole update                   :        0.060 s           0.059 s
  | Hartree multipole summation                :        0.240 s           0.239 s
  | Integration                                :        0.256 s           0.254 s
  | Fock matrix evaluation                     :        0.012 s           0.013 s
  | Solution of K.-S. eqns.                    :        0.004 s           0.004 s
  | Total energy evaluation                    :        0.000 s           0.000 s
------------------------------------------------------------

------------------------------------------------------------
          Begin self-consistency iteration #   10

  Date     :  20140812, Time     :  111435.172
------------------------------------------------------------
  Evaluating new KS density.
  Integration grid: deviation in total charge (<rho> - N_e) =   2.664535E-15
  Pulay mixing of updated and previous charge densities.

  Evaluating partitioned Hartree potential by multipole expansion.
  | Analytical far-field extrapolation by fixed multipoles:
  | Hartree multipole sum: apparent total charge =  -0.978830E-07
  Summing up the Hartree potential.
  Time summed over all CPUs for potential: real work        0.942 s, elapsed        0.946 s
  | RMS charge density error from multipole expansion :   0.145659E-02

  Integrating Hamiltonian matrix: batch-based integration.
  Time summed over all CPUs for integration: real work        1.014 s, elapsed        1.029 s
  Evaluating the exchange matrix ... 

  Updating Kohn-Sham eigenvalues, eigenvectors, occupation numbers, and Fermi level.
  Solving generalized eigenproblem
  Updating Kohn-Sham eigenvalues and eigenfunctions.
  Solving standard eigenvalue problem for transformed Hamiltonian.
  Determining occupation numbers for Kohn-Sham eigenstates.
  | Chemical potential (Fermi level) in eV                 : -.65859985E+01
  | Error in electron count due to remaining E_F inaccuracy: 0.00000000E+00
  | Maximum occupation number of highest empty state:  0.00E+00

  Highest occupied state (VBM) at    -16.53382053 eV
  | Occupation number:      2.00000000

  Lowest unoccupied state (CBM) at     3.36182346 eV
  | Occupation number:      0.00000000

  Overall HOMO-LUMO gap:     19.89564398 eV.

  Total energy components:
  | Sum of eigenvalues            :          -1.21521347 Ha         -33.06764106 eV
  | XC energy correction          :           0.67355650 Ha          18.32840481 eV
  | XC potential correction       :           0.00000000 Ha           0.00000000 eV
  | Free-atom electrostatic energy:          -0.28660007 Ha          -7.79878484 eV
  | Hartree energy correction     :          -0.30454275 Ha          -8.28702979 eV
  | Entropy correction            :           0.00000000 Ha           0.00000000 eV
  | ---------------------------
  | Total energy                  :          -1.13279980 Ha         -30.82505088 eV
  | Total energy, T -> 0          :          -1.13279980 Ha         -30.82505088 eV  <-- do not rely on this value for anything but (periodic) metals
  | Electronic free energy        :          -1.13279980 Ha         -30.82505088 eV

  Derived energy quantities:
  | Kinetic energy                :           1.17023518 Ha          31.84371944 eV
  | Electrostatic energy          :          -1.62947848 Ha         -44.34036552 eV
  | Energy correction for multipole
  | error in Hartree potential    :          -0.00007530 Ha          -0.00204908 eV
  | Sum of eigenvalues per atom                           :         -16.53382053 eV
  | Total energy (T->0) per atom                          :         -15.41252544 eV  <-- do not rely on this value for anything but (periodic) metals
  | Electronic free energy per atom                       :         -15.41252544 eV

  Self-consistency convergence accuracy:
  | Change of charge density      : 0.2122E-06
  | Change of sum of eigenvalues  : 0.1230E-04 eV
  | Change of total energy        : -.1782E-04 eV

  End self-consistency iteration #    10       :  max(cpu_time)    wall_clock(cpu1)
  | Time for this iteration                    :        0.748 s           0.747 s
  | Charge density update                      :        0.128 s           0.126 s
  | Density mixing                             :        0.036 s           0.033 s
  | Hartree multipole update                   :        0.072 s           0.072 s
  | Hartree multipole summation                :        0.240 s           0.238 s
  | Integration                                :        0.260 s           0.257 s
  | Fock matrix evaluation                     :        0.016 s           0.016 s
  | Solution of K.-S. eqns.                    :        0.004 s           0.004 s
  | Total energy evaluation                    :        0.000 s           0.000 s
------------------------------------------------------------

------------------------------------------------------------
          Begin self-consistency iteration #   11

  Date     :  20140812, Time     :  111435.919
------------------------------------------------------------
  Evaluating new KS density.
  Integration grid: deviation in total charge (<rho> - N_e) =   8.881784E-16
  Pulay mixing of updated and previous charge densities.

  Evaluating partitioned Hartree potential by multipole expansion.
  | Analytical far-field extrapolation by fixed multipoles:
[...]
  Time summed over all CPUs for potential: real work        0.941 s, elapsed        0.955 s
  | RMS charge density error from multipole expansion :   0.145659E-02

  Integrating Hamiltonian matrix: batch-based integration.
  Time summed over all CPUs for integration: real work        1.015 s, elapsed        1.023 s
  Evaluating the exchange matrix ... 

  Updating Kohn-Sham eigenvalues, eigenvectors, occupation numbers, and Fermi level.
  Solving generalized eigenproblem
  Updating Kohn-Sham eigenvalues and eigenfunctions.
  Solving standard eigenvalue problem for transformed Hamiltonian.
  Determining occupation numbers for Kohn-Sham eigenstates.
  | Chemical potential (Fermi level) in eV                 : -.65859988E+01
  | Error in electron count due to remaining E_F inaccuracy: 0.00000000E+00
  | Maximum occupation number of highest empty state:  0.00E+00

  Highest occupied state (VBM) at    -16.53382094 eV
  | Occupation number:      2.00000000

  Lowest unoccupied state (CBM) at     3.36182340 eV
  | Occupation number:      0.00000000

  Overall HOMO-LUMO gap:     19.89564433 eV.

  Total energy components:
  | Sum of eigenvalues            :          -1.21521350 Ha         -33.06764187 eV
  | XC energy correction          :           0.67355652 Ha          18.32840548 eV
  | XC potential correction       :           0.00000000 Ha           0.00000000 eV
  | Free-atom electrostatic energy:          -0.28660007 Ha          -7.79878484 eV
  | Hartree energy correction     :          -0.30454271 Ha          -8.28702870 eV
  | Entropy correction            :           0.00000000 Ha           0.00000000 eV
  | ---------------------------
  | Total energy                  :          -1.13279976 Ha         -30.82504993 eV
  | Total energy, T -> 0          :          -1.13279976 Ha         -30.82504993 eV  <-- do not rely on this value for anything but (periodic) metals
  | Electronic free energy        :          -1.13279976 Ha         -30.82504993 eV

  Derived energy quantities:
  | Kinetic energy                :           1.17023522 Ha          31.84372059 eV
  | Electrostatic energy          :          -1.62947846 Ha         -44.34036503 eV
  | Energy correction for multipole
  | error in Hartree potential    :          -0.00007530 Ha          -0.00204908 eV
  | Sum of eigenvalues per atom                           :         -16.53382094 eV
  | Total energy (T->0) per atom                          :         -15.41252496 eV  <-- do not rely on this value for anything but (periodic) metals
  | Electronic free energy per atom                       :         -15.41252496 eV

  Self-consistency convergence accuracy:
  | Change of charge density      : 0.1111E-07
  | Change of sum of eigenvalues  : -.8166E-06 eV
  | Change of total energy        : 0.9504E-06 eV

  Writing Kohn-Sham eigenvalues.

  State    Occupation    Eigenvalue [Ha]    Eigenvalue [eV]
      1       2.00000          -0.607607          -16.53382
      2       0.00000           0.123545            3.36182
      3       0.00000           0.141089            3.83922
      4       0.00000           0.364987            9.93179
      5       0.00000           0.364987            9.93179
      6       0.00000           0.433521           11.79671
      7       0.00000           0.554706           15.09432
      8       0.00000           0.554706           15.09432
      9       0.00000           0.568441           15.46808
     10       0.00000           0.785276           21.36845
     11       0.00000           1.136409           30.92327
     12       0.00000           1.136409           30.92327
     13       0.00000           1.323706           36.01987
     14       0.00000           1.518332           41.31592
     15       0.00000           1.556170           42.34554
     16       0.00000           1.556170           42.34554
     17       0.00000           1.638587           44.58823
     18       0.00000           1.638587           44.58823
     19       0.00000           1.693617           46.08567
     20       0.00000           1.744426           47.46825
     21       0.00000           1.744426           47.46825
     22       0.00000           1.812236           49.31346
     23       0.00000           1.812236           49.31346
     24       0.00000           2.679264           72.90649
     25       0.00000           3.196564           86.98293
     26       0.00000           3.196564           86.98293
     27       0.00000           3.320500           90.35539
     28       0.00000           3.320500           90.35539
     29       0.00000           3.694683          100.53745
     30       0.00000           3.968648          107.99239
     31       0.00000           4.200200          114.29326
     32       0.00000           4.200201          114.29328
     33       0.00000           4.623790          125.81973
     34       0.00000           4.623790          125.81973
     35       0.00000           4.762831          129.60323
     36       0.00000           5.036125          137.03993
     37       0.00000           5.036125          137.03993
     38       0.00000           5.110134          139.05382
     39       0.00000           5.110134          139.05383
     40       0.00000           5.546177          150.91914
     41       0.00000           5.546177          150.91914
     42       0.00000           5.550495          151.03664
     43       0.00000           5.981788          162.77273
     44       0.00000           5.981788          162.77274
     45       0.00000           6.377712          173.54637
     46       0.00000           6.377712          173.54637
     47       0.00000           6.636991          180.60171
     48       0.00000           7.742266          210.67778
     49       0.00000           7.742271          210.67791
     50       0.00000           7.976559          217.05321
     51       0.00000           9.468067          257.63923
     52       0.00000           9.468067          257.63923
     53       0.00000          10.544938          286.94237
     54       0.00000          10.544938          286.94237
     55       0.00000          12.545572          341.38240
     56       0.00000          15.599223          424.47645
     57       0.00000          17.236384          469.02588
     58       0.00000          17.236384          469.02588
     59       0.00000          19.840398          539.88469
     60       0.00000          27.370884          744.79965
     61       0.00000          27.939012          760.25921

  Highest occupied state (VBM) at    -16.53382094 eV
  | Occupation number:      2.00000000

  Lowest unoccupied state (CBM) at     3.36182340 eV
  | Occupation number:      0.00000000

  Overall HOMO-LUMO gap:     19.89564433 eV.

  Self-consistency cycle converged.

  End self-consistency iteration #    11       :  max(cpu_time)    wall_clock(cpu1)
  | Time for this iteration                    :        0.768 s           0.766 s
  | Charge density update                      :        0.152 s           0.151 s
  | Density mixing                             :        0.036 s           0.036 s
  | Hartree multipole update                   :        0.068 s           0.067 s
  | Hartree multipole summation                :        0.240 s           0.240 s
  | Integration                                :        0.256 s           0.255 s
  | Fock matrix evaluation                     :        0.012 s           0.013 s
  | Solution of K.-S. eqns.                    :        0.004 s           0.003 s
  | Total energy evaluation                    :        0.000 s           0.001 s
------------------------------------------------------------

  Energy and forces in a compact form:
  | Total energy uncorrected      :         -0.308250499294753E+02 eV
  | Total energy corrected        :         -0.308250499294753E+02 eV  <-- do not rely on this value for anything but (periodic) metals
  | Electronic free energy        :         -0.308250499294753E+02 eV

  ------------------------------------ 
  Start decomposition of the XC Energy 
  ------------------------------------ 
  Hartree-Fock part   :          0.673556521 Ha             18.328405482 eV
  ------------------------------------ 
  X Energy            :          0.673556521 Ha             18.328405482 eV
  C Energy GGA        :          0.000000000 Ha              0.000000000 eV
  Total XC Energy     :          0.673556521 Ha             18.328405482 eV
  LDA X and C from self-consistent density 
  X Energy LDA        :         -0.579306788 Ha            -15.763739748 eV
  C Energy LDA        :         -0.095489843 Ha             -2.598410829 eV
  ------------------------------------ 
  End decomposition of the XC Energy 
  ------------------------------------ 
---------------------------------------------
---------------------------------------------
 | MP2 calculation starts ...
---------------------------------------------

  | Note : Resolution of identity applied 
  | Note : Non spin-polarized system 
---------------------------------------------
  | Homo level                                        1
  | Lumo level                                        2
  | Total Number of states                           61
  | Number of k-points                                1
  | Homo-Lumo Gap                            0.73115149 Ha         19.89564433 eV
---------------------------------------------
  The ovlp_3KS matrix takes another      0 MiB x      4 procs =       0.000 GiB.


---------------------------------------------
| Sum of correlation terms 
---------------------------------------------
  | Pair state     1                    :         -0.89554635 eV         -0.89554635 eV

---------------------------------------------
| Correlation energy spectrum 
---------------------------------------------
  |     2    :          0.12354474        -0.00135464
  |     3    :          0.14108858        -0.00115643
  |     4    :          0.36498667        -0.00178319
  |     5    :          0.36498667        -0.00178319
  |     6    :          0.43352120        -0.00512174
  |     7    :          0.55470607        -0.00008291
  |     8    :          0.55470607        -0.00008291
  |     9    :          0.56844132        -0.00013303
  |    10    :          0.78527596        -0.00317457
  |    11    :          1.13640917        -0.00020012
  |    12    :          1.13640925        -0.00020012
  |    13    :          1.32370579        -0.00409478
  |    14    :          1.51833222        -0.00023024
  |    15    :          1.55616987        -0.00217458
  |    16    :          1.55616987        -0.00217458
  |    17    :          1.63858741        -0.00026548
  |    18    :          1.63858741        -0.00026548
  |    19    :          1.69361738        -0.00035909
  |    20    :          1.74442603        -0.00004301
  |    21    :          1.74442621        -0.00004301
  |    22    :          1.81223618        -0.00040802
  |    23    :          1.81223618        -0.00040802
  |    24    :          2.67926440        -0.00168708
  |    25    :          3.19656407        -0.00006046
  |    26    :          3.19656407        -0.00006046
  |    27    :          3.32049964        -0.00021145
  |    28    :          3.32049964        -0.00021145
  |    29    :          3.69468342        -0.00056973
  |    30    :          3.96864754        -0.00107937
  |    31    :          4.20020011        -0.00016353
  |    32    :          4.20020087        -0.00016353
  |    33    :          4.62379025        -0.00002177
  |    34    :          4.62379025        -0.00002177
  |    35    :          4.76283111        -0.00013386
  |    36    :          5.03612478        -0.00013237
  |    37    :          5.03612478        -0.00013237
  |    38    :          5.11013405        -0.00010308
  |    39    :          5.11013416        -0.00010308
  |    40    :          5.54617661        -0.00045936
  |    41    :          5.54617661        -0.00045936
  |    42    :          5.55049459        -0.00020225
  |    43    :          5.98178798        -0.00003806
  |    44    :          5.98178808        -0.00003806
  |    45    :          6.37771170        -0.00006817
  |    46    :          6.37771170        -0.00006817
  |    47    :          6.63699089        -0.00008767
  |    48    :          7.74226629        -0.00004903
  |    49    :          7.74227086        -0.00004903
  |    50    :          7.97655876        -0.00029356
  |    51    :          9.46806749        -0.00011332
  |    52    :          9.46806749        -0.00011332
  |    53    :         10.54493810        -0.00009341
  |    54    :         10.54493810        -0.00009341
  |    55    :         12.54557250        -0.00012096
  |    56    :         15.59922281        -0.00006792
  |    57    :         17.23638414        -0.00002594
  |    58    :         17.23638414        -0.00002594
  |    59    :         19.84039759        -0.00001054
  |    60    :         27.37088410        -0.00001837
  |    61    :         27.93901231        -0.00002033
---------------------------------------------
 
 
 
          ---------------------------------------------
          | MP2 calculation comes to finish ...  
 
          ---------------------------------------------
          | Total time for calculating MP2 correction              :        0.000 s

          ---------------------------------------------

---------------------------------------------
  | HF Energy                      :         -1.13279976 Ha        -30.82504993 eV
  | MP2 correction                 :         -0.03291072 Ha         -0.89554635 eV
---------------------------------------------
  | Total Energy + MP2 correction  :         -1.16571049 Ha        -31.72059628 eV
---------------------------------------------

------------------------------------------------------------------------------
  Final output of selected total energy values:

  The following output summarizes some interesting total energy values
  at the end of a run (AFTER all relaxation, molecular dynamics, etc.).

  | Total energy of the DFT / Hartree-Fock s.c.f. calculation      :            -30.825049929 eV
  | Final zero-broadening corrected energy (caution - metals only) :            -30.825049929 eV
  | Total energy after the post-s.c.f. correlation calculation     :            -31.720596275 eV
  | For reference only, the value of 1 Hartree used in FHI-aims is :             27.211384500 eV

  Before relying on these values, please be sure to understand exactly which
  total energy value is referred to by a given number. Different objects may
  all carry the same name 'total energy'. Definitions:

  Total energy of the DFT / Hartree-Fock s.c.f. calculation:
  | Note that this energy does not include ANY quantities calculated after the
  | s.c.f. cycle, in particular not ANY RPA, MP2, etc. many-body perturbation terms.

  Final zero-broadening corrected energy:
  | For metallic systems only, a broadening of the occupation numbers at the Fermi
  | level can be extrapolated back to zero broadening by an electron-gas inspired
  | formula. For all systems that are not real metals, this value can be
  | meaningless and should be avoided.

  Total energy of the post-s.c.f. correlation calculation        :
  | The actual meaning of this energy depends on the setting for the 'total_energy_method'
  | keyword (MP2, RPA, rPT2, etc). If not sure, compare to the results listed above.

------------------------------------------------------------------------------

  Methods described in the following list of references were used in this FHI-aims run.
  If you publish the results, please make sure to cite these reference if they apply.
  FHI-aims is an academic code, and for our developers (often, Ph.D. students
  and postdocs), scientific credit in the community is essential.
  Thank you for helping us!

  For any use of FHI-aims, please cite:

    Volker Blum, Ralf Gehrke, Felix Hanke, Paula Havu, Ville Havu,
    Xinguo Ren, Karsten Reuter, and Matthias Scheffler,
    "Ab initio molecular simulations with numeric atom-centered orbitals"
    Computer Physics Communications 180, 2175-2196 (2009).
    http://dx.doi.org/10.1016/j.cpc.2009.06.022

  For Hartree-Fock, hybrid functionals, or many-body perturbation theory used in your run, please cite:

    Xinguo Ren, Patrick Rinke, Volker Blum, Juergen Wieferink, Alex Tkatchenko,
    Andrea Sanfilippo, Karsten Reuter, and Matthias Scheffler,
    "Resolution-of-identity approach to Hartree-Fock, hybrid density functionals,
     RPA, MP2, and GW with numeric atom-centered orbital basis functions"
    New Journal of Physics 14, 053020 (2012).
    http://dx.doi.org/10.1088/1367-2630/14/5/053020

  For the NAO-VCC-nZ basis sets used in this calculation, please cite:

    Igor Ying Zhang, Xinguo Ren, Patrick Rinke, Volker Blum, and Matthias Scheffler,
    "Numeric atom-centered-orbital basis sets with valence-correlation consistency from H to Ar"
    New Journal of Physics 15, 123033 (2013).
    http://dx.doi.org/10.1088/1367-2630/15/12/123033

  For the real-space grid partitioning and parallelization used in this calculation, please cite:

    Ville Havu, Volker Blum, Paula Havu, and Matthias Scheffler,
    "Efficient O(N) integration for all-electron electronic
    structure calculation using numerically tabulated basis functions"
    Journal of Computational Physics 228, 8367-8379 (2009).
    http://dx.doi.org/10.1016/j.jcp.2009.08.008

  Of course, there are many other important community references, e.g., those cited in the
  above references. Our list is limited to references that describe implementations in the FHI-aims
  code. The reason is purely practical (length of this list) - please credit others as well.

------------------------------------------------------------
          Leaving FHI-aims.
          Date     :  20140812, Time     :  111436.716

          Computational steps:
          | Number of self-consistency cycles          :           11

          Detailed time accounting                     :  max(cpu_time)    wall_clock(cpu1)
          | Total time                                 :       32.318 s          32.366 s
          | Preparation time                           :        0.212 s           0.235 s
          | Grid partitioning                          :        0.252 s           0.251 s
          | Preloading free-atom quantities on grid    :        0.072 s           0.069 s
          | Free-atom superposition energy             :        0.040 s           0.037 s
          | Total time for integrations                :        3.352 s           3.335 s
          | Product basis setup: Total time            :        0.000 s           0.000 s
          | Product basis: | 3-center integrations     :       22.641 s          22.660 s
          | Product basis: | 2-center integrations     :        0.256 s           0.255 s
          | Product basis: | 2-center linear algebra   :        0.072 s           0.070 s
          | Product basis: | 3-center x 2-center       :        0.028 s           0.026 s
          | Total time evaluating exchange matrix      :        0.140 s           0.142 s
          | Transforming ovlp_3fn to ovlp_3KS          :        0.012 s           0.010 s
          | Total time for solution of K.-S. equations :        0.052 s           0.046 s
          | Total time for density update              :        1.464 s           1.450 s
          | Total time for mixing                      :        0.216 s           0.209 s
          | Total time for Hartree multipole update    :        0.688 s           0.678 s
          | Total time for Hartree multipole sum       :        2.652 s           2.641 s
          | Total time for total energy evaluation     :        0.000 s           0.004 s

          Have a nice day.
------------------------------------------------------------
