  MPI-parallelism will be employed.
------------------------------------------------------------
          Invoking FHI-aims ...
          Version 072414
          Compiled on 2014/08/06 at 00:00:04 on host theobook58.

          When using FHI-aims, please cite the following reference:

          Volker Blum, Ralf Gehrke, Felix Hanke, Paula Havu,
          Ville Havu, Xinguo Ren, Karsten Reuter, and Matthias Scheffler,
          'Ab Initio Molecular Simulations with Numeric Atom-Centered Orbitals: FHI-aims',
          Computer Physics Communications 180, 2175-2196 (2009)

          For any questions about FHI-aims, please visit the aimsclub website
          with its forums and wiki. Contributions to both the forums and the
          wiki are warmly encouraged - they are for you, and everyone is welcome there.

------------------------------------------------------------

  Date     :  20140812, Time     :  111332.047
  Time zero on CPU 1             :   0.160000000000000E-01  s.
  Internal wall clock time zero  :           177074012.047  s.

  Using        4 parallel tasks.
  Task        0 on host theobook58 reporting.
  Task        1 on host theobook58 reporting.
  Task        2 on host theobook58 reporting.
  Task        3 on host theobook58 reporting.

  Performing system and environment tests:
  | Environment variable OMP_NUM_THREADS correctly set to 1.
  | Stacksize not measured: no C compiler
  | Checking for scalapack...
  | No scalapack compiled in.

  Obtaining array dimensions for all initial allocations:
  
  -----------------------------------------------------------------------
  Parsing control.in (first pass over file, find array dimensions only).
  The contents of control.in will be repeated verbatim below
  unless switched off by setting 'verbatim_writeout .false.' .
  in the first line of control.in .
  -----------------------------------------------------------------------
  
  xc                      hf
  total_energy_method     mp2
  relativistic            none
  occupation_type         integer 0.0001
  mixer                   pulay
  n_max_pulay             10
  charge_mix_param        0.6
  sc_iter_limit           600
  sc_accuracy_rho         1E-6
  sc_accuracy_eev         1E-4
  sc_accuracy_etot        1E-6
  override_illconditioning .true.
  charge                  0
  ################################################################################
  #
  #  FHI-aims code project
  # Igor Ying Zhang and Xinguo Ren, Fritz Haber Institute Berlin, 2012
  #
  #  Suggested "NAO-VCC-4Z" defaults for H atom (to be pasted into control.in file)
  #
  #  Please cite:
  #
  #  Igor Ying Zhang, Xinguo Ren, Patrick Rinke, Volker Blum, and Matthias Scheffler,
  #  "Numeric atom-centered-orbital basis sets with valence-correlation consistency from H to Ar"
  #  New Journal of Physics 15, 123033 (2013).
  #  http://dx.doi.org/10.1088/1367-2630/15/12/123033
  #
  ################################################################################
    species        H
  #     set basis set reference for FHI-aims output
      cite_reference NAO-VCC-2013
  #     global species definitions
      nucleus             1
      mass                1.00794
  #
      l_hartree           6
  #
      cut_pot             4.0  2.0  1.0
      basis_dep_cutoff    0e-4
  #
      radial_base         24 7.0
  radial_multiplier               6
      angular_grids       specified
        division   0.1930   50
        division   0.3175  110
        division   0.4293  194
        division   0.5066  302
        division   0.5626  434
        division   0.5922  590
  #      division   0.6227  974
  #      division   0.6868 1202
        outer_grid  770
  #      outer_grid  434
  ################################################################################
  #
  #  Definition of "minimal" basis
  #
  ################################################################################
  #     valence basis states
      valence      1  s   1.
  #     ion occupancy
      ion_occ      1  s   0.5
  ################################################################################
  
  
   basis_acc              1e-04
  #============================================
  # Optimization in      H for       NAO-VCC-4Z
  #============================================
  # (sp) correlation set
   hydro     1     s      1.15655525
   hydro     1     s      1.68684502
   hydro     1     s      2.46027686
   hydro     2     p      2.92145897
   hydro     2     p      4.14501835
   hydro     2     p      5.88102632
  # polarization set
   hydro     3     d      6.41446874
   hydro     3     d      7.67536483
   hydro     4     f     10.80870049
  # (sp) enhanced minimal set
   hydro     1     s      3.58833335
  
  -----------------------------------------------------------------------
  Completed first pass over input file control.in .
  -----------------------------------------------------------------------
  
  
  -----------------------------------------------------------------------
  Parsing geometry.in (first pass over file, find array dimensions only).
  The contents of geometry.in will be repeated verbatim below
  unless switched off by setting 'verbatim_writeout .false.' .
  in the first line of geometry.in .
  -----------------------------------------------------------------------
  
  atom             0.0             0.0             0.0    H
  atom             0.0             0.0            0.65    H
  
  -----------------------------------------------------------------------
  Completed first pass over input file geometry.in .
  -----------------------------------------------------------------------
  

  Basic array size parameters:
  | Number of species                 :        1
  | Number of atoms                   :        2
  | Max. basis fn. angular momentum   :        3
  | Max. atomic/ionic basis occupied n:        1
  | Max. number of basis fn. types    :        2
  | Max. radial fns per species/type  :       10
  | Max. logarithmic grid size        :     1131
  | Max. radial integration grid size :      149
  | Max. angular integration grid size:      770
  | Max. angular grid division number :        8
  | Radial grid for Hartree potential :     1131
  | Number of spin channels           :        1

------------------------------------------------------------
          Reading file control.in.
------------------------------------------------------------
 
  Hartree-Fock calculation starts ...... 
  Attention: this version of Hartree-Fock employs an auxiliary basis. 
 
  MP2 correlation energy calculation will be started after the DFT/HF calculation.
  Non-relativistic treatment of kinetic energy.
  Occupation type: Integer occupation.
  Using pulay charge density mixing.
  Pulay mixing - number of memorized iterations:   10
  Charge density mixing - mixing parameter:     0.6000
  Maximum number of s.-c. iterations  :   600
  Convergence accuracy of self-consistent charge density: 0.1000E-05
  Convergence accuracy of sum of eigenvalues: 0.1000E-03
  Convergence accuracy of total energy: 0.1000E-05
  override_illconditioning: Explicitly overriding any built-in checks for an ill-conditioned overlap matrix.
  *** WARNING: If you use this flag, you should really know what you are doing.
  *** DO NOT keep this flag set by default in all your control.in files.
  Charge =   0.000000E+00: Neutral system requested explicitly.
 
  Reading configuration options for species H                   .
  | Found nuclear charge :   1.0000
  | Found atomic mass :    1.00794000000000      amu
  | Found l_max for Hartree potential  :   6
  | Found cutoff potl. onset [A], width [A], scale factor :    4.00000    2.00000    1.00000
  | Threshold for basis-dependent cutoff potential is   0.000000E+00
  | Found data for basic radial integration grid :    24 points, outermost radius =    7.000 A
  | Found multiplier for basic radial grid :   6
  | Found angular grid specification: user-specified.
  | Specified grid contains     7 separate shells.
  | Check grid settings after all constraints further below.
  | Found free-atom valence shell :  1 s   1.000
  | No ionic wave fns used. Skipping ion_occ.
  | Found basis singularity cutoff : 0.1000E-03
  | Found hydrogenic basis function :  1 s   1.157
  | Found hydrogenic basis function :  1 s   1.687
  | Found hydrogenic basis function :  1 s   2.460
  | Found hydrogenic basis function :  2 p   2.921
  | Found hydrogenic basis function :  2 p   4.145
  | Found hydrogenic basis function :  2 p   5.881
  | Found hydrogenic basis function :  3 d   6.414
  | Found hydrogenic basis function :  3 d   7.675
  | Found hydrogenic basis function :  4 f  10.809
  | Found hydrogenic basis function :  1 s   3.588
  Species H                   : Missing cutoff potential type.
  Defaulting to exp(1/x)/(1-x)^2 type cutoff potential.
  Species H : No 'logarithmic' tag. Using default grid for free atom:
  | Default logarithmic grid data [bohr] : 0.1000E-03 0.1000E+03 0.1012E+01
  Species H                   : Using default innermost maximum threshold i_radial=  2 for radial functions.
  Species H                   : Default cutoff onset for free atom density etc. is infinite
  since the product basis is used (hybrid functionals, Hartree-Fock, GW etc.).
  Species H                   : Basic radial grid will be enhanced according to radial_multiplier =   6, to contain   149 grid points.
 
  Finished reading input file 'control.in'. Consistency checks are next.
 
  Species H: Using default value for prodbas_acc =   1.000000E-02.
  Species H: Using default value max_l_prodbas =     5.
  Target number of points in a grid batch is not set. Defaulting to  100
  Method for grid partitioning is not set. Defaulting to parallel hash+maxmin partitioning.
  Batch size limit is not set. Defaulting to    200
  By default, will store active basis functions for each batch.
  If in need of memory, prune_basis_once .false. can be used to disable this option.
  communication_type for Hartree potential was not specified.
  Defaulting to calc_hartree .
  Pulay mixer: Number of initial linear mixing iterations not set.
  Defaulting to    0 iterations.
  Work space size for distributed Hartree potential not set.
  Defaulting to   0.200000E+03 MB.
  Algorithm-dependent basis array size parameters:
  | n_max_pulay                         :       10
  Calculation of forces was not defined in control.in. No forces will be calculated.
  Geometry relaxation not requested: no relaxation will be performed.
  No accuracy limit for integral partition fn. given. Defaulting to 0.1000E-14.
  No threshold value for u(r) in integrations given. Defaulting to 0.1000E-05.
  No accuracy for occupation numbers given. Defaulting to 0.1000E-07.
  No threshold value for occupation numbers given. Defaulting to 0.0000E+00.
  No accuracy for fermi level given. Defaulting to 0.1000E-19.
  Maximum # of iterations to find E_F not set. Defaulting to  200.
  Preferred method for the eigenvalue solver ('KS_method') not specified in 'control.in'.
  Calling blacs routine to test compilation state
  The best choice would be 'elpa', but your version of FHI-aims is compiled without scalapack support.
  Defaulting to 'lapack_fast' instead (serial solution, time will not improve with more CPUs).
  Will not use alltoall communication since running on < 1024 CPUs.
  Threshold for basis singularities not set.
  Default threshold for basis singularities: 0.1000E-04
  partition_type (choice of integration weights) for integrals was not specified.
  | Using a version of the partition function of Stratmann and coworkers ('stratmann_smoother').
  | At each grid point, the set of atoms used to build the partition table is smoothly restricted to
  | only those atoms whose free-atom density would be non-zero at that grid point.
  Partitioning for Hartree potential was not defined. Using partition_type for integrals.
  | Adjusted default value of keyword multip_moments_threshold to:       0.10000000E-11
  | This value may affect high angular momentum components of the Hartree potential in periodic systems.
  Spin handling was not defined in control.in. Defaulting to unpolarized case.
  Threshold for auxiliary basis singularities not set.
  Default threshold for auxiliary basis singularities: 0.1000E-04
  No q(lm)/r^(l+1) cutoff set for long-range Hartree potential.
  | Using default value of  0.100000E-09 .
  | Verify using the multipole_threshold keyword.
  Defaulting to new monopole extrapolation.
  Density update method: automatic selection selected.
  Default to 1D ("use_logsbt") integrations for auxiliary 2-center integrals.
  Default onset of logarithmic r-grid for SBT is-38.000000000000
  Default onset of logarithmic k-grid for SBT is-25.000000000000
  Default range of logarithmic r- and k-grid for SBT is 45.000000000000
  Default number of logarithmic r- and k-grid for SBT is  4096
------------------------------------------------------------


------------------------------------------------------------
          Reading geometry description geometry.in.
------------------------------------------------------------
  Input structure read successfully.
  The structure contains        2 atoms,  and a total of          2.000 electrons.

  Input geometry:
  | No unit cell requested.
  | Atomic structure:
  |       Atom                x [A]            y [A]            z [A]
  |    1: Species H              0.000000         0.000000         0.000000
  |    2: Species H              0.000000         0.000000         0.650000
  |

  | The smallest distance between any two atoms is         0.65000000 AA.
  |
  | The first atom of this pair is atom number                      1 .
  | The second atom of this pair is atom number                     2 .

  Number of empty states per atom not set in control.in .
  | Since you are using a method that relies on the unoccupied spectrum
  | (MP2,GW,RPA et al.), will use the full Hamiltonian size (see below)
  | as the max. possible number of states (occupied plus empty).

  Structure-dependent array size parameters: 
  | Maximum number of distinct radial functions  :       11
  | Maximum number of basis functions            :       62
  | Number of Kohn-Sham states (occupied + empty):       62
------------------------------------------------------------

------------------------------------------------------------
          Preparing all fixed parts of the calculation.
------------------------------------------------------------
  Determining machine precision:
    2.225073858507201E-308
  Setting up grids for atomic and cluster calculations.

  Creating wave function, potential, and density for free atoms.

  Species: H

  List of occupied orbitals and eigenvalues:
    n    l              occ      energy [Ha]    energy [eV]
    1    0           1.0000        -0.233457        -6.3527

  Creating fixed part of basis set: Ionic, confined, hydrogenic.
 
  H                    hydrogenic:
 
  List of hydrogenic basis orbitals: 
    n    l      effective z      eigenvalue [eV]  inner max. [A]     outer max. [A]     outer radius [A]   
    1    0         1.156555       -18.1992           0.460320           0.460320           5.243229
    1    0         1.686845       -38.7143           0.315118           0.315118           4.932336
    1    0         2.460277       -82.3547           0.215718           0.215718           3.815562
    2    1         2.921459       -29.0309           0.723605           0.723605           5.243229
    2    1         4.145018       -58.4405           0.507614           0.507614           4.813203
    2    1         5.881026      -117.6432           0.360475           0.360475           3.678162
    3    2         6.414469       -62.2013           0.741515           0.741515           4.993004
    3    2         7.675365       -89.0587           0.617279           0.617279           4.583499
    4    3        10.808700       -99.3454           0.778676           0.778676           4.696947
    1    0         3.588333      -175.1887           0.147673           0.147673           2.644120
 

  Adding cutoff potential to free-atom effective potential.
  Creating atomic-like basis functions for current effective potential.

  Species H                   :

  List of atomic basis orbitals and eigenvalues:
    n    l      energy [Ha]    energy [eV]    outer radius [A]
    1    0        -0.233418        -6.3516       5.373006

  Assembling full basis from fixed parts.
  | Species H :   atomic orbital   1 s accepted.
  | Species H :    hydro orbital   1 s accepted.
  | Species H :    hydro orbital   1 s accepted.
  | Species H :    hydro orbital   1 s accepted.
  | Species H :    hydro orbital   1 s accepted.
  | Species H :    hydro orbital   2 p accepted.
  | Species H :    hydro orbital   2 p accepted.
  | Species H :    hydro orbital   2 p accepted.
  | Species H :    hydro orbital   3 d accepted.
  | Species H :    hydro orbital   3 d accepted.
  | Species H :    hydro orbital   4 f accepted.
 
  Basis size parameters after reduction:
  | Total number of radial functions:       11
  | Total number of basis functions :       62
 
  Testing on-site integration grid accuracy.
  |  Species  Function  <phi|h_atom|phi> (log., in eV)  <phi|h_atom|phi> (rad., in eV)
           1        1                 -6.3519216712                 -6.3519215989
           1        2                  8.4716038567                  8.4716058028
           1        3                 58.3749927434                 58.3750109815
           1        4                178.9024737125                178.9026031671
           1        5                456.3642310330                456.3649721232
           1        6                 16.2415699263                 16.2415699338
           1        7                 68.2932618880                 68.2932619123
           1        8                188.3801588017                188.3801587562
           1        9                 49.9849006789                 49.9849006869
           1       10                114.3821731125                114.3821730675
           1       11                 88.0899419283                 88.0899419237

  Preparing densities etc. for the partition functions (integrals / Hartree potential).

  Preparations completed.
  max(cpu_time)          :      0.176 s.
  Wall clock time (cpu1) :      0.208 s.
------------------------------------------------------------

------------------------------------------------------------
          Begin self-consistency loop: Initialization.

          Date     :  20140812, Time     :  111332.259
------------------------------------------------------------

  Initializing index lists of integration centers etc. from given atomic structure:
  | Number of centers in hartree potential         :         2
  | Number of centers in hartree multipole         :         2
  | Number of centers in electron density summation:         2
  | Number of centers in basis integrals           :         2
  | Number of centers in integrals                 :         2
  Partitioning the integration grid into batches with parallel hashing+maxmin method.
  | Number of batches:     1968
  | Maximal batch size:     157
  | Minimal batch size:      62
  | Average batch size:      73.376
  | Standard deviation of batch sizes:      14.658

  Integration load balanced across     4 MPI tasks.
  Work distribution over tasks is as follows:
  Task     0 has      36091 integration points.
  Task     1 has      36075 integration points.
  Task     2 has      36089 integration points.
  Task     3 has      36149 integration points.
  Initializing partition tables, free-atom densities, potentials, etc. across the integration grid (initialize_grid_storage).
  | Original list of interatomic distances with           2 x          2 entries is created.
  | Net number of integration points:   144404
  | of which are non-zero points    :   128310
  Obtaining max. number of non-zero basis functions in each batch (get_n_compute_maxes).
  | Maximal number of non-zero basis functions:       62 in task     0
  | Maximal number of non-zero basis functions:       62 in task     1
  | Maximal number of non-zero basis functions:       62 in task     2
  | Maximal number of non-zero basis functions:       62 in task     3
  Selecting the method for density update.
  Loop over occupied states selected for charge density update.
  Integrating Hamiltonian matrix: batch-based integration.
  Time summed over all CPUs for integration: real work        1.105 s, elapsed        1.159 s
  Integrating overlap matrix.
  Time summed over all CPUs for integration: real work        0.714 s, elapsed        0.725 s

  Updating Kohn-Sham eigenvalues, eigenvectors, occupation numbers, and Fermi level.
  Solving generalized eigenproblem
  Updating Kohn-Sham eigenvalues and eigenfunctions.
  Transforming overlap matrix and checking for singularities.
  Overlap matrix is singular:
  | Using       61 out of a possible       62 specified basis functions.
  | Lowest remaining eigenvalue:  0.291743E-03
  Solving standard eigenvalue problem for transformed Hamiltonian.
  Determining occupation numbers for Kohn-Sham eigenstates.
  | Chemical potential (Fermi level) in eV                 : -.75670837E+01
  | Error in electron count due to remaining E_F inaccuracy: 0.00000000E+00
  | Maximum occupation number of highest empty state:  0.00E+00

  Writing Kohn-Sham eigenvalues.

  State    Occupation    Eigenvalue [Ha]    Eigenvalue [eV]
      1       2.00000          -0.545799          -14.85195
      2       0.00000          -0.010371           -0.28222
      3       0.00000           0.031978            0.87016
      4       0.00000           0.146361            3.98268
      5       0.00000           0.146361            3.98268
      6       0.00000           0.234269            6.37479
      7       0.00000           0.377923           10.28381
      8       0.00000           0.377923           10.28381
      9       0.00000           0.385748           10.49672
     10       0.00000           0.531801           14.47105
     11       0.00000           0.862022           23.45680
     12       0.00000           0.862022           23.45680
     13       0.00000           1.014413           27.60359
     14       0.00000           1.191707           32.42800
     15       0.00000           1.191707           32.42800
     16       0.00000           1.275127           34.69796
     17       0.00000           1.331446           36.23048
     18       0.00000           1.331446           36.23048
     19       0.00000           1.372356           37.34371
     20       0.00000           1.484903           40.40626
     21       0.00000           1.484903           40.40626
     22       0.00000           1.517929           41.30494
     23       0.00000           1.517929           41.30494
     24       0.00000           2.272676           61.84265
     25       0.00000           2.816901           76.65178
     26       0.00000           2.816901           76.65178
     27       0.00000           3.059554           83.25469
     28       0.00000           3.059554           83.25469
     29       0.00000           3.335300           90.75813
     30       0.00000           3.558202           96.82359
     31       0.00000           3.826405          104.12178
     32       0.00000           3.826406          104.12182
     33       0.00000           4.253177          115.73483
     34       0.00000           4.306237          117.17866
     35       0.00000           4.306237          117.17866
     36       0.00000           4.502471          122.51847
     37       0.00000           4.502471          122.51847
     38       0.00000           4.643378          126.35275
     39       0.00000           4.643378          126.35276
     40       0.00000           5.013079          136.41281
     41       0.00000           5.091110          138.53616
     42       0.00000           5.091110          138.53616
     43       0.00000           5.471656          148.89132
     44       0.00000           5.471656          148.89133
     45       0.00000           5.807496          158.03000
     46       0.00000           5.807496          158.03000
     47       0.00000           6.485672          176.48410
     48       0.00000           7.624187          207.46468
     49       0.00000           7.624193          207.46485
     50       0.00000           7.676370          208.88467
     51       0.00000           9.200008          250.34497
     52       0.00000           9.200008          250.34497
     53       0.00000          10.479569          285.16358
     54       0.00000          10.479569          285.16358
     55       0.00000          12.467399          339.25519
     56       0.00000          15.461514          420.72920
     57       0.00000          17.273991          470.04920
     58       0.00000          17.273991          470.04920
     59       0.00000          18.711452          509.16451
     60       0.00000          27.374107          744.88736
     61       0.00000          28.318069          770.57386

  Highest occupied state (VBM) at    -14.85195210 eV
  | Occupation number:      2.00000000

  Lowest unoccupied state (CBM) at    -0.28221522 eV
  | Occupation number:      0.00000000

  Overall HOMO-LUMO gap:     14.56973689 eV.
  Calculating total energy contributions from superposition of free atom densities.

  Total energy components:
  | Sum of eigenvalues            :          -1.09159842 Ha         -29.70390421 eV
  | XC energy correction          :          -0.53895221 Ha         -14.66563580 eV
  | XC potential correction       :           0.70309399 Ha          19.13216099 eV
  | Free-atom electrostatic energy:          -0.23839448 Ha          -6.48704382 eV
  | Hartree energy correction     :           0.00000000 Ha           0.00000000 eV
  | Entropy correction            :           0.00000000 Ha           0.00000000 eV
  | ---------------------------
  | Total energy                  :          -1.16585111 Ha         -31.72442284 eV
  | Total energy, T -> 0          :          -1.16585111 Ha         -31.72442284 eV  <-- do not rely on this value for anything but (periodic) metals
  | Electronic free energy        :          -1.16585111 Ha         -31.72442284 eV

  Derived energy quantities:
  | Kinetic energy                :           0.60055251 Ha          16.34186525 eV
  | Electrostatic energy          :          -1.22745141 Ha         -33.40065230 eV
  | Energy correction for multipole
  | error in Hartree potential    :           0.00000000 Ha           0.00000000 eV
  | Sum of eigenvalues per atom                           :         -14.85195210 eV
  | Total energy (T->0) per atom                          :         -15.86221142 eV  <-- do not rely on this value for anything but (periodic) metals
  | Electronic free energy per atom                       :         -15.86221142 eV
 
 --------------------------------------------
  Constructing auxiliary basis (full product) ...
 
  Product basis:
  | charge radius: extent of product basis function
  | field radius: extent of its Coulomb potential
  | Species   l  charge radius    field radius  multipol momen
  |    H      5     4.813203 A      4.813203 A  2.676041E-15 a.u.
  |    H      4     4.932336 A      4.932336 A  2.417679E-16 a.u.
  |    H      3     5.054418 A      5.054418 A  ************ a.u.
  |    H      4     5.054418 A      5.054418 A  ************ a.u.
  |    H      3     5.116587 A      5.116587 A  1.642688E-15 a.u.
  |    H      2     5.179521 A      5.179521 A  6.126280E-16 a.u.
  |    H      3     5.179521 A      5.179521 A  ************ a.u.
  |    H      2     5.243229 A      5.243229 A  1.485543E-16 a.u.
  |    H      2     5.243229 A      5.243229 A  1.683301E-16 a.u.
  |    H      2     5.243229 A      5.243229 A  ************ a.u.
  |    H      3     5.243229 A      5.243229 A  ************ a.u.
  |    H      1     5.307721 A      5.307721 A  2.416866E-16 a.u.
  |    H      1     5.307721 A      5.307721 A  1.291012E-16 a.u.
  |    H      2     5.307721 A      5.307721 A  7.871382E-16 a.u.
  |    H      0     5.373006 A      5.373006 A  9.519909E-17 a.u.
  |    H      1     5.373006 A      5.373006 A  2.334090E-16 a.u.
  |    H      1     5.373006 A      5.373006 A  ************ a.u.
  |    H      1     5.373006 A      5.373006 A  ************ a.u.
  |    H      1     5.373006 A      5.373006 A  1.823473E-16 a.u.
  |    H      0     5.373006 A      5.439094 A  ************ a.u.
  |    H      0     5.439094 A      5.439094 A  ************ a.u.
  |    H      0     5.439094 A      5.505995 A  9.305319E-17 a.u.
  |    H      0     5.439094 A      5.505995 A  4.082184E-17 a.u.
  |    H      0     5.439094 A      5.505995 A  3.169850E-16 a.u.
  |    H      0     5.439094 A      5.505995 A  2.711689E-16 a.u.
  |    H      5     4.872405 A  1.325110E+02 A           19.619780 a.u.
  |    H      4     5.054418 A  3.771796E+02 A           14.639479 a.u.
  |    H      3     5.243229 A  1.836978E+03 A           11.555842 a.u.
  |    H      2     5.307721 A  2.095310E+04 A            4.940052 a.u.
  |    H      1     5.373006 A  2.512347E+06 A            1.793689 a.u.
  |    H      0     5.439094 A  4.604132E+12 A            0.692368 a.u.

  | Shrink_full_auxil_basis : there are       31  radial auxiliary wave functions
                            accepted and      90 rejected.
  | Shrink_full_auxil_basis : there are totally     286 partial auxiliary wave functions.
 
  | Number of product basis functions per thread :    72
  | Minimal requirement for computer memories :           0.005 Gbs
 
  Basis pair condensation :      1953  -->       1953
 
 ----------------------------------------------------
  Integrating the 3-basis-function Coulomb matrix ...
  | i_atom:            1
  | i_atom:            2
  Integrating the Coulomb interaction matrix for auxiliary basis functions (by atoms)

  SBT integration errors (all should be 'small'):
  large logFT aliasing -> increase N/lnrange
  large SBT aliasing -> decrease lnk0 & increase lnk0+lnrange
  large SBT ringing -> decrease lnr0 & increase lnr0+lnrange
  |            El't  L: logFT-al.   small-k   large-k   small-r   large-r
  Atomic logSBT for 2-center Coulomb matrix    :  max(cpu_time)    wall_clock(cpu1)
  | Multiplication with kernel                 :        0.016 s           0.009 s
  | Main matrix multiplication                 :        0.072 s           0.044 s
  | Analytic angular integration               :        0.004 s           0.002 s
  | Kernel construction                        :        0.004 s           0.002 s
  | Overall 2-center overlap time              :        0.096 s           0.064 s

  Difference of Coulomb matrix to its transposed:  3.3307E-16
  Task     0: Eigenvalues of the Coulomb matrix range from    2.0000E+00 to    1.2874E-11.
  Task     0: Using      272   eigenvalues out of rank      286   Coulomb matrix (auxiliary basis).
  Task     0: Still using eigenvalue     5.6356E-05 while cutting     7.4158E-06 in Coulomb matrix.
 
  Multiplying V^-0.5 x ovlp_3fn (1d-scalapack)

  Initialize hartree_potential_storage
  Max. number of atoms included in rho_multipole:            2

  End scf initialization - timings             :  max(cpu_time)    wall_clock(cpu1)
  | Time for scf. initialization               :       23.905 s          23.931 s
  | Boundary condition initialization          :        0.000 s           0.000 s
  | Integration                                :        0.472 s           0.472 s
  | Solution of K.-S. eqns.                    :        0.008 s           0.007 s
  | Grid partitioning                          :        0.228 s           0.227 s
  | Preloading free-atom quantities on grid    :        0.068 s           0.066 s
  | Free-atom superposition energy             :        0.032 s           0.032 s
  | Total energy evaluation                    :        0.000 s           0.001 s
  | Product basis setup: Total time            :       23.029 s          23.051 s
  | Product basis: | 3-center integrations     :       22.549 s          22.580 s
  | Product basis: | 2-center integrations     :        0.256 s           0.255 s
  | Product basis: | 2-center linear algebra   :        0.072 s           0.070 s
  | Product basis: | 3-center x 2-center       :        0.024 s           0.023 s
------------------------------------------------------------

------------------------------------------------------------
          Begin self-consistency iteration #    1

  Date     :  20140812, Time     :  111356.191
------------------------------------------------------------
  Evaluating new KS density.
  Integration grid: deviation in total charge (<rho> - N_e) =  -8.437695E-15
  Pulay mixing of updated and previous charge densities.

  Evaluating partitioned Hartree potential by multipole expansion.
  | Analytical far-field extrapolation by fixed multipoles:
  | Hartree multipole sum: apparent total charge =  -0.742371E-07
  Summing up the Hartree potential.
  Time summed over all CPUs for potential: real work        0.944 s, elapsed        0.953 s
  | RMS charge density error from multipole expansion :   0.117366E-02

  Integrating Hamiltonian matrix: batch-based integration.
  Time summed over all CPUs for integration: real work        1.014 s, elapsed        1.027 s
  Evaluating the exchange matrix ... 

  Updating Kohn-Sham eigenvalues, eigenvectors, occupation numbers, and Fermi level.
  Solving generalized eigenproblem
  Updating Kohn-Sham eigenvalues and eigenfunctions.
  Solving standard eigenvalue problem for transformed Hamiltonian.
  Determining occupation numbers for Kohn-Sham eigenstates.
  | Chemical potential (Fermi level) in eV                 : -.78018426E+01
  | Error in electron count due to remaining E_F inaccuracy: 0.00000000E+00
  | Maximum occupation number of highest empty state:  0.00E+00

  Writing Kohn-Sham eigenvalues.

  State    Occupation    Eigenvalue [Ha]    Eigenvalue [eV]
      1       2.00000          -0.699891          -19.04501
      2       0.00000           0.126466            3.44132
      3       0.00000           0.132874            3.61569
      4       0.00000           0.358882            9.76567
      5       0.00000           0.358882            9.76567
      6       0.00000           0.436227           11.87034
      7       0.00000           0.536834           14.60801
      8       0.00000           0.536834           14.60801
      9       0.00000           0.552322           15.02944
     10       0.00000           0.747156           20.33116
     11       0.00000           1.128055           30.69595
     12       0.00000           1.128055           30.69595
     13       0.00000           1.334351           36.30953
     14       0.00000           1.515017           41.22572
     15       0.00000           1.537559           41.83911
     16       0.00000           1.537559           41.83911
     17       0.00000           1.605208           43.67993
     18       0.00000           1.605208           43.67993
     19       0.00000           1.662345           45.23470
     20       0.00000           1.746184           47.51608
     21       0.00000           1.746184           47.51608
     22       0.00000           1.795766           48.86529
     23       0.00000           1.795766           48.86529
     24       0.00000           2.675676           72.80884
     25       0.00000           3.184123           86.64439
     26       0.00000           3.184123           86.64439
     27       0.00000           3.440355           93.61682
     28       0.00000           3.440355           93.61682
     29       0.00000           3.760275          102.32228
     30       0.00000           4.065369          110.62431
     31       0.00000           4.274653          116.31922
     32       0.00000           4.274654          116.31925
     33       0.00000           4.630041          125.98983
     34       0.00000           4.683681          127.44945
     35       0.00000           4.683681          127.44945
     36       0.00000           4.922228          133.94064
     37       0.00000           4.922228          133.94064
     38       0.00000           5.073822          138.06572
     39       0.00000           5.073822          138.06573
     40       0.00000           5.482411          149.18401
     41       0.00000           5.643129          153.55735
     42       0.00000           5.643129          153.55735
     43       0.00000           5.882963          160.08357
     44       0.00000           5.882963          160.08357
     45       0.00000           6.228634          169.48975
     46       0.00000           6.228634          169.48975
     47       0.00000           6.970542          189.67810
     48       0.00000           8.139698          221.49244
     49       0.00000           8.139704          221.49262
     50       0.00000           8.301722          225.90136
     51       0.00000           9.792749          266.47426
     52       0.00000           9.792749          266.47426
     53       0.00000          11.125952          302.75255
     54       0.00000          11.125952          302.75255
     55       0.00000          13.188447          358.87591
     56       0.00000          16.179394          440.26372
     57       0.00000          17.937515          488.10461
     58       0.00000          17.937515          488.10461
     59       0.00000          19.280629          524.65260
     60       0.00000          28.122447          765.25072
     61       0.00000          29.103099          791.93563

  Highest occupied state (VBM) at    -19.04500902 eV
  | Occupation number:      2.00000000

  Lowest unoccupied state (CBM) at     3.44132389 eV
  | Occupation number:      0.00000000

  Overall HOMO-LUMO gap:     22.48633291 eV.

  Total energy components:
  | Sum of eigenvalues            :          -1.39978243 Ha         -38.09001804 eV
  | XC energy correction          :           0.73758178 Ha          20.07062151 eV
  | XC potential correction       :           0.00000000 Ha           0.00000000 eV
  | Free-atom electrostatic energy:          -0.23839448 Ha          -6.48704382 eV
  | Hartree energy correction     :          -0.23317447 Ha          -6.34500010 eV
  | Entropy correction            :           0.00000000 Ha           0.00000000 eV
  | ---------------------------
  | Total energy                  :          -1.13376960 Ha         -30.85144045 eV
  | Total energy, T -> 0          :          -1.13376960 Ha         -30.85144045 eV  <-- do not rely on this value for anything but (periodic) metals
  | Electronic free energy        :          -1.13376960 Ha         -30.85144045 eV

  Derived energy quantities:
  | Kinetic energy                :           1.17944173 Ha          32.09424245 eV
  | Electrostatic energy          :          -1.57562955 Ha         -42.87506140 eV
  | Energy correction for multipole
  | error in Hartree potential    :          -0.00008649 Ha          -0.00235349 eV
  | Sum of eigenvalues per atom                           :         -19.04500902 eV
  | Total energy (T->0) per atom                          :         -15.42572023 eV  <-- do not rely on this value for anything but (periodic) metals
  | Electronic free energy per atom                       :         -15.42572023 eV

  Self-consistency convergence accuracy:
  | Change of charge density      : 0.2175E+00
  | Change of sum of eigenvalues  : -.8386E+01 eV
  | Change of total energy        : 0.8730E+00 eV

  End self-consistency iteration #     1       :  max(cpu_time)    wall_clock(cpu1)
  | Time for this iteration                    :        0.704 s           0.705 s
  | Charge density update                      :        0.132 s           0.130 s
  | Density mixing                             :        0.004 s           0.002 s
  | Hartree multipole update                   :        0.060 s           0.059 s
  | Hartree multipole summation                :        0.240 s           0.240 s
  | Integration                                :        0.256 s           0.257 s
  | Fock matrix evaluation                     :        0.016 s           0.012 s
  | Solution of K.-S. eqns.                    :        0.004 s           0.004 s
  | Total energy evaluation                    :        0.004 s           0.001 s
------------------------------------------------------------

------------------------------------------------------------
          Begin self-consistency iteration #    2

  Date     :  20140812, Time     :  111356.896
------------------------------------------------------------
  Evaluating new KS density.
  Integration grid: deviation in total charge (<rho> - N_e) =  -1.110223E-15
  Pulay mixing of updated and previous charge densities.

  Evaluating partitioned Hartree potential by multipole expansion.
  | Analytical far-field extrapolation by fixed multipoles:
  | Hartree multipole sum: apparent total charge =  -0.630867E-07
  Summing up the Hartree potential.
  Time summed over all CPUs for potential: real work        0.937 s, elapsed        0.949 s
  | RMS charge density error from multipole expansion :   0.191587E-02

  Integrating Hamiltonian matrix: batch-based integration.
  Time summed over all CPUs for integration: real work        1.020 s, elapsed        1.034 s
  Evaluating the exchange matrix ... 

  Updating Kohn-Sham eigenvalues, eigenvectors, occupation numbers, and Fermi level.
  Solving generalized eigenproblem
  Updating Kohn-Sham eigenvalues and eigenfunctions.
  Solving standard eigenvalue problem for transformed Hamiltonian.
  Determining occupation numbers for Kohn-Sham eigenstates.
  | Chemical potential (Fermi level) in eV                 : -.65122363E+01
  | Error in electron count due to remaining E_F inaccuracy: 0.00000000E+00
  | Maximum occupation number of highest empty state:  0.00E+00

  Highest occupied state (VBM) at    -16.58131307 eV
  | Occupation number:      2.00000000

  Lowest unoccupied state (CBM) at     3.55684056 eV
  | Occupation number:      0.00000000

  Overall HOMO-LUMO gap:     20.13815363 eV.

  Total energy components:
  | Sum of eigenvalues            :          -1.21870411 Ha         -33.16262615 eV
  | XC energy correction          :           0.73225310 Ha          19.92562076 eV
  | XC potential correction       :           0.00000000 Ha           0.00000000 eV
  | Free-atom electrostatic energy:          -0.23839448 Ha          -6.48704382 eV
  | Hartree energy correction     :          -0.40160524 Ha         -10.92823456 eV
  | Entropy correction            :           0.00000000 Ha           0.00000000 eV
  | ---------------------------
  | Total energy                  :          -1.12645072 Ha         -30.65228376 eV
  | Total energy, T -> 0          :          -1.12645072 Ha         -30.65228376 eV  <-- do not rely on this value for anything but (periodic) metals
  | Electronic free energy        :          -1.12645072 Ha         -30.65228376 eV

  Derived energy quantities:
  | Kinetic energy                :           1.34973361 Ha          36.72812023 eV
  | Electrostatic energy          :          -1.74393123 Ha         -47.45478323 eV
  | Energy correction for multipole
  | error in Hartree potential    :          -0.00011147 Ha          -0.00303314 eV
  | Sum of eigenvalues per atom                           :         -16.58131307 eV
  | Total energy (T->0) per atom                          :         -15.32614188 eV  <-- do not rely on this value for anything but (periodic) metals
  | Electronic free energy per atom                       :         -15.32614188 eV

  Self-consistency convergence accuracy:
  | Change of charge density      : 0.8003E-01
  | Change of sum of eigenvalues  : 0.4927E+01 eV
  | Change of total energy        : 0.1992E+00 eV

  End self-consistency iteration #     2       :  max(cpu_time)    wall_clock(cpu1)
  | Time for this iteration                    :        0.712 s           0.712 s
  | Charge density update                      :        0.136 s           0.134 s
  | Density mixing                             :        0.004 s           0.005 s
  | Hartree multipole update                   :        0.064 s           0.060 s
  | Hartree multipole summation                :        0.240 s           0.239 s
  | Integration                                :        0.260 s           0.258 s
  | Fock matrix evaluation                     :        0.012 s           0.012 s
  | Solution of K.-S. eqns.                    :        0.004 s           0.004 s
  | Total energy evaluation                    :        0.000 s           0.000 s
------------------------------------------------------------

------------------------------------------------------------
          Begin self-consistency iteration #    3

  Date     :  20140812, Time     :  111357.609
------------------------------------------------------------
  Evaluating new KS density.
  Integration grid: deviation in total charge (<rho> - N_e) =   8.881784E-16
  Pulay mixing of updated and previous charge densities.

  Evaluating partitioned Hartree potential by multipole expansion.
  | Analytical far-field extrapolation by fixed multipoles:
  | Hartree multipole sum: apparent total charge =  -0.627299E-07
  Summing up the Hartree potential.
  Time summed over all CPUs for potential: real work        0.950 s, elapsed        0.973 s
  | RMS charge density error from multipole expansion :   0.166654E-02

  Integrating Hamiltonian matrix: batch-based integration.
  Time summed over all CPUs for integration: real work        1.014 s, elapsed        1.026 s
  Evaluating the exchange matrix ... 

  Updating Kohn-Sham eigenvalues, eigenvectors, occupation numbers, and Fermi level.
  Solving generalized eigenproblem
  Updating Kohn-Sham eigenvalues and eigenfunctions.
  Solving standard eigenvalue problem for transformed Hamiltonian.
  Determining occupation numbers for Kohn-Sham eigenstates.
  | Chemical potential (Fermi level) in eV                 : -.67879959E+01
  | Error in electron count due to remaining E_F inaccuracy: 0.00000000E+00
  | Maximum occupation number of highest empty state:  0.00E+00

  Highest occupied state (VBM) at    -17.08096006 eV
  | Occupation number:      2.00000000

  Lowest unoccupied state (CBM) at     3.50496823 eV
  | Occupation number:      0.00000000

  Overall HOMO-LUMO gap:     20.58592829 eV.

  Total energy components:
  | Sum of eigenvalues            :          -1.25542749 Ha         -34.16192013 eV
  | XC energy correction          :           0.70694653 Ha          19.23699394 eV
  | XC potential correction       :           0.00000000 Ha           0.00000000 eV
  | Free-atom electrostatic energy:          -0.23839448 Ha          -6.48704382 eV
  | Hartree energy correction     :          -0.34657892 Ha          -9.43089226 eV
  | Entropy correction            :           0.00000000 Ha           0.00000000 eV
  | ---------------------------
  | Total energy                  :          -1.13345436 Ha         -30.84286227 eV
  | Total energy, T -> 0          :          -1.13345436 Ha         -30.84286227 eV  <-- do not rely on this value for anything but (periodic) metals
  | Electronic free energy        :          -1.13345436 Ha         -30.84286227 eV

  Derived energy quantities:
  | Kinetic energy                :           1.25818978 Ha          34.23708591 eV
  | Electrostatic energy          :          -1.68469760 Ha         -45.84295423 eV
  | Energy correction for multipole
  | error in Hartree potential    :          -0.00007922 Ha          -0.00215567 eV
  | Sum of eigenvalues per atom                           :         -17.08096006 eV
  | Total energy (T->0) per atom                          :         -15.42143113 eV  <-- do not rely on this value for anything but (periodic) metals
  | Electronic free energy per atom                       :         -15.42143113 eV

  Self-consistency convergence accuracy:
  | Change of charge density      : 0.2867E-01
  | Change of sum of eigenvalues  : -.9993E+00 eV
  | Change of total energy        : -.1906E+00 eV

  End self-consistency iteration #     3       :  max(cpu_time)    wall_clock(cpu1)
  | Time for this iteration                    :        0.712 s           0.713 s
  | Charge density update                      :        0.128 s           0.128 s
  | Density mixing                             :        0.008 s           0.008 s
  | Hartree multipole update                   :        0.060 s           0.059 s
  | Hartree multipole summation                :        0.244 s           0.244 s
  | Integration                                :        0.256 s           0.257 s
  | Fock matrix evaluation                     :        0.012 s           0.012 s
  | Solution of K.-S. eqns.                    :        0.004 s           0.004 s
  | Total energy evaluation                    :        0.000 s           0.001 s
------------------------------------------------------------

------------------------------------------------------------
          Begin self-consistency iteration #    4

  Date     :  20140812, Time     :  111358.322
------------------------------------------------------------
  Evaluating new KS density.
  Integration grid: deviation in total charge (<rho> - N_e) =  -3.996803E-15
  Pulay mixing of updated and previous charge densities.

  Evaluating partitioned Hartree potential by multipole expansion.
  | Analytical far-field extrapolation by fixed multipoles:
  | Hartree multipole sum: apparent total charge =  -0.676952E-07
  Summing up the Hartree potential.
  Time summed over all CPUs for potential: real work        0.938 s, elapsed        0.947 s
  | RMS charge density error from multipole expansion :   0.161619E-02

  Integrating Hamiltonian matrix: batch-based integration.
  Time summed over all CPUs for integration: real work        1.014 s, elapsed        1.023 s
  Evaluating the exchange matrix ... 

  Updating Kohn-Sham eigenvalues, eigenvectors, occupation numbers, and Fermi level.
  Solving generalized eigenproblem
  Updating Kohn-Sham eigenvalues and eigenfunctions.
  Solving standard eigenvalue problem for transformed Hamiltonian.
  Determining occupation numbers for Kohn-Sham eigenstates.
  | Chemical potential (Fermi level) in eV                 : -.67611975E+01
  | Error in electron count due to remaining E_F inaccuracy: 0.00000000E+00
  | Maximum occupation number of highest empty state:  0.00E+00

  Highest occupied state (VBM) at    -17.00398778 eV
  | Occupation number:      2.00000000

  Lowest unoccupied state (CBM) at     3.48159280 eV
  | Occupation number:      0.00000000

  Overall HOMO-LUMO gap:     20.48558059 eV.

  Total energy components:
  | Sum of eigenvalues            :          -1.24977013 Ha         -34.00797557 eV
  | XC energy correction          :           0.69920834 Ha          19.02642698 eV
  | XC potential correction       :           0.00000000 Ha           0.00000000 eV
  | Free-atom electrostatic energy:          -0.23839448 Ha          -6.48704382 eV
  | Hartree energy correction     :          -0.33679214 Ha          -9.16458039 eV
  | Entropy correction            :           0.00000000 Ha           0.00000000 eV
  | ---------------------------
  | Total energy                  :          -1.12574841 Ha         -30.63317280 eV
  | Total energy, T -> 0          :          -1.12574841 Ha         -30.63317280 eV  <-- do not rely on this value for anything but (periodic) metals
  | Electronic free energy        :          -1.12574841 Ha         -30.63317280 eV

  Derived energy quantities:
  | Kinetic energy                :           1.24177064 Ha          33.79029844 eV
  | Electrostatic energy          :          -1.66831071 Ha         -45.39704426 eV
  | Energy correction for multipole
  | error in Hartree potential    :          -0.00005840 Ha          -0.00158914 eV
  | Sum of eigenvalues per atom                           :         -17.00398778 eV
  | Total energy (T->0) per atom                          :         -15.31658640 eV  <-- do not rely on this value for anything but (periodic) metals
  | Electronic free energy per atom                       :         -15.31658640 eV

  Self-consistency convergence accuracy:
  | Change of charge density      : 0.1757E-02
  | Change of sum of eigenvalues  : 0.1539E+00 eV
  | Change of total energy        : 0.2097E+00 eV

  End self-consistency iteration #     4       :  max(cpu_time)    wall_clock(cpu1)
  | Time for this iteration                    :        0.712 s           0.712 s
  | Charge density update                      :        0.128 s           0.129 s
  | Density mixing                             :        0.012 s           0.011 s
  | Hartree multipole update                   :        0.060 s           0.059 s
  | Hartree multipole summation                :        0.236 s           0.238 s
  | Integration                                :        0.256 s           0.256 s
  | Fock matrix evaluation                     :        0.016 s           0.014 s
  | Solution of K.-S. eqns.                    :        0.004 s           0.005 s
  | Total energy evaluation                    :        0.000 s           0.000 s
------------------------------------------------------------

------------------------------------------------------------
          Begin self-consistency iteration #    5

  Date     :  20140812, Time     :  111359.035
------------------------------------------------------------
  Evaluating new KS density.
  Integration grid: deviation in total charge (<rho> - N_e) =  -5.329071E-15
  Pulay mixing of updated and previous charge densities.

  Evaluating partitioned Hartree potential by multipole expansion.
  | Analytical far-field extrapolation by fixed multipoles:
  | Hartree multipole sum: apparent total charge =  -0.681495E-07
  Summing up the Hartree potential.
  Time summed over all CPUs for potential: real work        0.953 s, elapsed        1.005 s
  | RMS charge density error from multipole expansion :   0.160199E-02

  Integrating Hamiltonian matrix: batch-based integration.
  Time summed over all CPUs for integration: real work        1.028 s, elapsed        1.086 s
  Evaluating the exchange matrix ... 

  Updating Kohn-Sham eigenvalues, eigenvectors, occupation numbers, and Fermi level.
  Solving generalized eigenproblem
  Updating Kohn-Sham eigenvalues and eigenfunctions.
  Solving standard eigenvalue problem for transformed Hamiltonian.
  Determining occupation numbers for Kohn-Sham eigenstates.
  | Chemical potential (Fermi level) in eV                 : -.67700269E+01
  | Error in electron count due to remaining E_F inaccuracy: 0.00000000E+00
  | Maximum occupation number of highest empty state:  0.00E+00

  Highest occupied state (VBM) at    -17.01077555 eV
  | Occupation number:      2.00000000

  Lowest unoccupied state (CBM) at     3.47072168 eV
  | Occupation number:      0.00000000

  Overall HOMO-LUMO gap:     20.48149724 eV.

  Total energy components:
  | Sum of eigenvalues            :          -1.25026902 Ha         -34.02155110 eV
  | XC energy correction          :           0.69366428 Ha          18.87556546 eV
  | XC potential correction       :           0.00000000 Ha           0.00000000 eV
  | Free-atom electrostatic energy:          -0.23839448 Ha          -6.48704382 eV
  | Hartree energy correction     :          -0.33184039 Ha          -9.02983642 eV
  | Entropy correction            :           0.00000000 Ha           0.00000000 eV
  | ---------------------------
  | Total energy                  :          -1.12683961 Ha         -30.66286588 eV
  | Total energy, T -> 0          :          -1.12683961 Ha         -30.66286588 eV  <-- do not rely on this value for anything but (periodic) metals
  | Electronic free energy        :          -1.12683961 Ha         -30.66286588 eV

  Derived energy quantities:
  | Kinetic energy                :           1.23114528 Ha          33.50116757 eV
  | Electrostatic energy          :          -1.66432061 Ha         -45.28846799 eV
  | Energy correction for multipole
  | error in Hartree potential    :          -0.00005881 Ha          -0.00160028 eV
  | Sum of eigenvalues per atom                           :         -17.01077555 eV
  | Total energy (T->0) per atom                          :         -15.33143294 eV  <-- do not rely on this value for anything but (periodic) metals
  | Electronic free energy per atom                       :         -15.33143294 eV

  Self-consistency convergence accuracy:
  | Change of charge density      : 0.4278E-03
  | Change of sum of eigenvalues  : -.1358E-01 eV
  | Change of total energy        : -.2969E-01 eV

  End self-consistency iteration #     5       :  max(cpu_time)    wall_clock(cpu1)
  | Time for this iteration                    :        0.744 s           0.744 s
  | Charge density update                      :        0.132 s           0.130 s
  | Density mixing                             :        0.016 s           0.015 s
  | Hartree multipole update                   :        0.060 s           0.059 s
  | Hartree multipole summation                :        0.252 s           0.252 s
  | Integration                                :        0.272 s           0.272 s
  | Fock matrix evaluation                     :        0.012 s           0.012 s
  | Solution of K.-S. eqns.                    :        0.004 s           0.004 s
  | Total energy evaluation                    :        0.000 s           0.000 s
------------------------------------------------------------

------------------------------------------------------------
          Begin self-consistency iteration #    6

  Date     :  20140812, Time     :  111359.780
------------------------------------------------------------
  Evaluating new KS density.
  Integration grid: deviation in total charge (<rho> - N_e) =  -2.353673E-14
  Pulay mixing of updated and previous charge densities.

  Evaluating partitioned Hartree potential by multipole expansion.
  | Analytical far-field extrapolation by fixed multipoles:
  | Hartree multipole sum: apparent total charge =  -0.686446E-07
  Summing up the Hartree potential.
  Time summed over all CPUs for potential: real work        0.959 s, elapsed        0.975 s
  | RMS charge density error from multipole expansion :   0.160641E-02

  Integrating Hamiltonian matrix: batch-based integration.
  Time summed over all CPUs for integration: real work        1.031 s, elapsed        1.064 s
  Evaluating the exchange matrix ... 

  Updating Kohn-Sham eigenvalues, eigenvectors, occupation numbers, and Fermi level.
  Solving generalized eigenproblem
  Updating Kohn-Sham eigenvalues and eigenfunctions.
  Solving standard eigenvalue problem for transformed Hamiltonian.
  Determining occupation numbers for Kohn-Sham eigenstates.
  | Chemical potential (Fermi level) in eV                 : -.67576213E+01
  | Error in electron count due to remaining E_F inaccuracy: 0.00000000E+00
  | Maximum occupation number of highest empty state:  0.00E+00

  Highest occupied state (VBM) at    -16.98858111 eV
  | Occupation number:      2.00000000

  Lowest unoccupied state (CBM) at     3.47333845 eV
  | Occupation number:      0.00000000

  Overall HOMO-LUMO gap:     20.46191957 eV.

  Total energy components:
  | Sum of eigenvalues            :          -1.24863776 Ha         -33.97716223 eV
  | XC energy correction          :           0.69322503 Ha          18.86361285 eV
  | XC potential correction       :           0.00000000 Ha           0.00000000 eV
  | Free-atom electrostatic energy:          -0.23839448 Ha          -6.48704382 eV
  | Hartree energy correction     :          -0.33374846 Ha          -9.08175766 eV
  | Entropy correction            :           0.00000000 Ha           0.00000000 eV
  | ---------------------------
  | Total energy                  :          -1.12755567 Ha         -30.68235086 eV
  | Total energy, T -> 0          :          -1.12755567 Ha         -30.68235086 eV  <-- do not rely on this value for anything but (periodic) metals
  | Electronic free energy        :          -1.12755567 Ha         -30.68235086 eV

  Derived energy quantities:
  | Kinetic energy                :           1.23064969 Ha          33.48768200 eV
  | Electrostatic energy          :          -1.66498033 Ha         -45.30642001 eV
  | Energy correction for multipole
  | error in Hartree potential    :          -0.00005627 Ha          -0.00153118 eV
  | Sum of eigenvalues per atom                           :         -16.98858111 eV
  | Total energy (T->0) per atom                          :         -15.34117543 eV  <-- do not rely on this value for anything but (periodic) metals
  | Electronic free energy per atom                       :         -15.34117543 eV

  Self-consistency convergence accuracy:
  | Change of charge density      : 0.7452E-03
  | Change of sum of eigenvalues  : 0.4439E-01 eV
  | Change of total energy        : -.1948E-01 eV

  End self-consistency iteration #     6       :  max(cpu_time)    wall_clock(cpu1)
  | Time for this iteration                    :        0.744 s           0.745 s
  | Charge density update                      :        0.128 s           0.127 s
  | Density mixing                             :        0.020 s           0.018 s
  | Hartree multipole update                   :        0.064 s           0.064 s
  | Hartree multipole summation                :        0.248 s           0.245 s
  | Integration                                :        0.268 s           0.266 s
  | Fock matrix evaluation                     :        0.020 s           0.020 s
  | Solution of K.-S. eqns.                    :        0.004 s           0.004 s
  | Total energy evaluation                    :        0.000 s           0.000 s
------------------------------------------------------------

------------------------------------------------------------
          Begin self-consistency iteration #    7

  Date     :  20140812, Time     :  111400.525
------------------------------------------------------------
  Evaluating new KS density.
  Integration grid: deviation in total charge (<rho> - N_e) =  -4.218847E-15
  Pulay mixing of updated and previous charge densities.

  Evaluating partitioned Hartree potential by multipole expansion.
  | Analytical far-field extrapolation by fixed multipoles:
  | Hartree multipole sum: apparent total charge =  -0.686005E-07
  Summing up the Hartree potential.
  Time summed over all CPUs for potential: real work        0.935 s, elapsed        0.944 s
  | RMS charge density error from multipole expansion :   0.160551E-02

  Integrating Hamiltonian matrix: batch-based integration.
  Time summed over all CPUs for integration: real work        1.019 s, elapsed        1.036 s
  Evaluating the exchange matrix ... 

  Updating Kohn-Sham eigenvalues, eigenvectors, occupation numbers, and Fermi level.
  Solving generalized eigenproblem
  Updating Kohn-Sham eigenvalues and eigenfunctions.
  Solving standard eigenvalue problem for transformed Hamiltonian.
  Determining occupation numbers for Kohn-Sham eigenstates.
  | Chemical potential (Fermi level) in eV                 : -.67596721E+01
  | Error in electron count due to remaining E_F inaccuracy: 0.00000000E+00
  | Maximum occupation number of highest empty state:  0.00E+00

  Highest occupied state (VBM) at    -16.99180788 eV
  | Occupation number:      2.00000000

  Lowest unoccupied state (CBM) at     3.47246364 eV
  | Occupation number:      0.00000000

  Overall HOMO-LUMO gap:     20.46427152 eV.

  Total energy components:
  | Sum of eigenvalues            :          -1.24887492 Ha         -33.98361576 eV
  | XC energy correction          :           0.69291955 Ha          18.85530017 eV
  | XC potential correction       :           0.00000000 Ha           0.00000000 eV
  | Free-atom electrostatic energy:          -0.23839448 Ha          -6.48704382 eV
  | Hartree energy correction     :          -0.33331790 Ha          -9.07004156 eV
  | Entropy correction            :           0.00000000 Ha           0.00000000 eV
  | ---------------------------
  | Total energy                  :          -1.12766776 Ha         -30.68540097 eV
  | Total energy, T -> 0          :          -1.12766776 Ha         -30.68540097 eV  <-- do not rely on this value for anything but (periodic) metals
  | Electronic free energy        :          -1.12766776 Ha         -30.68540097 eV

  Derived energy quantities:
  | Kinetic energy                :           1.23000539 Ha          33.47014959 eV
  | Electrostatic energy          :          -1.66475360 Ha         -45.30025038 eV
  | Energy correction for multipole
  | error in Hartree potential    :          -0.00005661 Ha          -0.00154048 eV
  | Sum of eigenvalues per atom                           :         -16.99180788 eV
  | Total energy (T->0) per atom                          :         -15.34270048 eV  <-- do not rely on this value for anything but (periodic) metals
  | Electronic free energy per atom                       :         -15.34270048 eV

  Self-consistency convergence accuracy:
  | Change of charge density      : 0.1316E-03
  | Change of sum of eigenvalues  : -.6454E-02 eV
  | Change of total energy        : -.3050E-02 eV

  End self-consistency iteration #     7       :  max(cpu_time)    wall_clock(cpu1)
  | Time for this iteration                    :        0.732 s           0.729 s
  | Charge density update                      :        0.140 s           0.136 s
  | Density mixing                             :        0.024 s           0.022 s
  | Hartree multipole update                   :        0.060 s           0.059 s
  | Hartree multipole summation                :        0.236 s           0.237 s
  | Integration                                :        0.260 s           0.259 s
  | Fock matrix evaluation                     :        0.016 s           0.012 s
  | Solution of K.-S. eqns.                    :        0.004 s           0.004 s
  | Total energy evaluation                    :        0.000 s           0.000 s
------------------------------------------------------------

------------------------------------------------------------
          Begin self-consistency iteration #    8

  Date     :  20140812, Time     :  111401.255
------------------------------------------------------------
  Evaluating new KS density.
  Integration grid: deviation in total charge (<rho> - N_e) =  -8.215650E-15
  Pulay mixing of updated and previous charge densities.

  Evaluating partitioned Hartree potential by multipole expansion.
  | Analytical far-field extrapolation by fixed multipoles:
  | Hartree multipole sum: apparent total charge =  -0.685998E-07
  Summing up the Hartree potential.
  Time summed over all CPUs for potential: real work        0.934 s, elapsed        0.941 s
  | RMS charge density error from multipole expansion :   0.160548E-02

  Integrating Hamiltonian matrix: batch-based integration.
  Time summed over all CPUs for integration: real work        1.010 s, elapsed        1.016 s
  Evaluating the exchange matrix ... 

  Updating Kohn-Sham eigenvalues, eigenvectors, occupation numbers, and Fermi level.
  Solving generalized eigenproblem
  Updating Kohn-Sham eigenvalues and eigenfunctions.
  Solving standard eigenvalue problem for transformed Hamiltonian.
  Determining occupation numbers for Kohn-Sham eigenstates.
  | Chemical potential (Fermi level) in eV                 : -.67596707E+01
  | Error in electron count due to remaining E_F inaccuracy: 0.00000000E+00
  | Maximum occupation number of highest empty state:  0.00E+00

  Highest occupied state (VBM) at    -16.99179671 eV
  | Occupation number:      2.00000000

  Lowest unoccupied state (CBM) at     3.47245529 eV
  | Occupation number:      0.00000000

  Overall HOMO-LUMO gap:     20.46425200 eV.

  Total energy components:
  | Sum of eigenvalues            :          -1.24887410 Ha         -33.98359343 eV
  | XC energy correction          :           0.69291163 Ha          18.85508466 eV
  | XC potential correction       :           0.00000000 Ha           0.00000000 eV
  | Free-atom electrostatic energy:          -0.23839448 Ha          -6.48704382 eV
  | Hartree energy correction     :          -0.33330948 Ha          -9.06981230 eV
  | Entropy correction            :           0.00000000 Ha           0.00000000 eV
  | ---------------------------
  | Total energy                  :          -1.12766643 Ha         -30.68536489 eV
  | Total energy, T -> 0          :          -1.12766643 Ha         -30.68536489 eV  <-- do not rely on this value for anything but (periodic) metals
  | Electronic free energy        :          -1.12766643 Ha         -30.68536489 eV

  Derived energy quantities:
  | Kinetic energy                :           1.22999413 Ha          33.46984319 eV
  | Electrostatic energy          :          -1.66474894 Ha         -45.30012343 eV
  | Energy correction for multipole
  | error in Hartree potential    :          -0.00005662 Ha          -0.00154071 eV
  | Sum of eigenvalues per atom                           :         -16.99179671 eV
  | Total energy (T->0) per atom                          :         -15.34268245 eV  <-- do not rely on this value for anything but (periodic) metals
  | Electronic free energy per atom                       :         -15.34268245 eV

  Self-consistency convergence accuracy:
  | Change of charge density      : 0.3985E-05
  | Change of sum of eigenvalues  : 0.2233E-04 eV
  | Change of total energy        : 0.3607E-04 eV

  End self-consistency iteration #     8       :  max(cpu_time)    wall_clock(cpu1)
  | Time for this iteration                    :        0.720 s           0.718 s
  | Charge density update                      :        0.128 s           0.125 s
  | Density mixing                             :        0.024 s           0.026 s
  | Hartree multipole update                   :        0.060 s           0.059 s
  | Hartree multipole summation                :        0.236 s           0.236 s
  | Integration                                :        0.256 s           0.255 s
  | Fock matrix evaluation                     :        0.012 s           0.012 s
  | Solution of K.-S. eqns.                    :        0.004 s           0.004 s
  | Total energy evaluation                    :        0.004 s           0.000 s
------------------------------------------------------------

------------------------------------------------------------
          Begin self-consistency iteration #    9

  Date     :  20140812, Time     :  111401.974
------------------------------------------------------------
  Evaluating new KS density.
  Integration grid: deviation in total charge (<rho> - N_e) =  -1.376677E-14
  Pulay mixing of updated and previous charge densities.

  Evaluating partitioned Hartree potential by multipole expansion.
  | Analytical far-field extrapolation by fixed multipoles:
  | Hartree multipole sum: apparent total charge =  -0.685996E-07
  Summing up the Hartree potential.
  Time summed over all CPUs for potential: real work        0.968 s, elapsed        0.995 s
  | RMS charge density error from multipole expansion :   0.160547E-02

  Integrating Hamiltonian matrix: batch-based integration.
  Time summed over all CPUs for integration: real work        1.027 s, elapsed        1.050 s
  Evaluating the exchange matrix ... 

  Updating Kohn-Sham eigenvalues, eigenvectors, occupation numbers, and Fermi level.
  Solving generalized eigenproblem
  Updating Kohn-Sham eigenvalues and eigenfunctions.
  Solving standard eigenvalue problem for transformed Hamiltonian.
  Determining occupation numbers for Kohn-Sham eigenstates.
  | Chemical potential (Fermi level) in eV                 : -.67596923E+01
  | Error in electron count due to remaining E_F inaccuracy: 0.00000000E+00
  | Maximum occupation number of highest empty state:  0.00E+00

  Highest occupied state (VBM) at    -16.99182403 eV
  | Occupation number:      2.00000000

  Lowest unoccupied state (CBM) at     3.47243945 eV
  | Occupation number:      0.00000000

  Overall HOMO-LUMO gap:     20.46426348 eV.

  Total energy components:
  | Sum of eigenvalues            :          -1.24887611 Ha         -33.98364807 eV
  | XC energy correction          :           0.69291067 Ha          18.85505871 eV
  | XC potential correction       :           0.00000000 Ha           0.00000000 eV
  | Free-atom electrostatic energy:          -0.23839448 Ha          -6.48704382 eV
  | Hartree energy correction     :          -0.33330484 Ha          -9.06968620 eV
  | Entropy correction            :           0.00000000 Ha           0.00000000 eV
  | ---------------------------
  | Total energy                  :          -1.12766476 Ha         -30.68531938 eV
  | Total energy, T -> 0          :          -1.12766476 Ha         -30.68531938 eV  <-- do not rely on this value for anything but (periodic) metals
  | Electronic free energy        :          -1.12766476 Ha         -30.68531938 eV

  Derived energy quantities:
  | Kinetic energy                :           1.22999216 Ha          33.46978966 eV
  | Electrostatic energy          :          -1.66474625 Ha         -45.30005034 eV
  | Energy correction for multipole
  | error in Hartree potential    :          -0.00005662 Ha          -0.00154077 eV
  | Sum of eigenvalues per atom                           :         -16.99182403 eV
  | Total energy (T->0) per atom                          :         -15.34265969 eV  <-- do not rely on this value for anything but (periodic) metals
  | Electronic free energy per atom                       :         -15.34265969 eV

  Self-consistency convergence accuracy:
  | Change of charge density      : 0.4729E-06
  | Change of sum of eigenvalues  : -.5464E-04 eV
  | Change of total energy        : 0.4551E-04 eV

  End self-consistency iteration #     9       :  max(cpu_time)    wall_clock(cpu1)
  | Time for this iteration                    :        0.756 s           0.757 s
  | Charge density update                      :        0.136 s           0.134 s
  | Density mixing                             :        0.028 s           0.029 s
  | Hartree multipole update                   :        0.068 s           0.065 s
  | Hartree multipole summation                :        0.252 s           0.250 s
  | Integration                                :        0.264 s           0.263 s
  | Fock matrix evaluation                     :        0.012 s           0.012 s
  | Solution of K.-S. eqns.                    :        0.004 s           0.003 s
  | Total energy evaluation                    :        0.000 s           0.000 s
------------------------------------------------------------

------------------------------------------------------------
          Begin self-consistency iteration #   10

  Date     :  20140812, Time     :  111402.731
------------------------------------------------------------
  Evaluating new KS density.
  Integration grid: deviation in total charge (<rho> - N_e) =  -7.327472E-15
  Pulay mixing of updated and previous charge densities.

  Evaluating partitioned Hartree potential by multipole expansion.
  | Analytical far-field extrapolation by fixed multipoles:
  | Hartree multipole sum: apparent total charge =  -0.685997E-07
  Summing up the Hartree potential.
  Time summed over all CPUs for potential: real work        0.967 s, elapsed        1.003 s
  | RMS charge density error from multipole expansion :   0.160547E-02

  Integrating Hamiltonian matrix: batch-based integration.
  Time summed over all CPUs for integration: real work        1.059 s, elapsed        1.123 s
  Evaluating the exchange matrix ... 

  Updating Kohn-Sham eigenvalues, eigenvectors, occupation numbers, and Fermi level.
  Solving generalized eigenproblem
  Updating Kohn-Sham eigenvalues and eigenfunctions.
  Solving standard eigenvalue problem for transformed Hamiltonian.
  Determining occupation numbers for Kohn-Sham eigenstates.
  | Chemical potential (Fermi level) in eV                 : -.67596884E+01
  | Error in electron count due to remaining E_F inaccuracy: 0.00000000E+00
  | Maximum occupation number of highest empty state:  0.00E+00

  Highest occupied state (VBM) at    -16.99181847 eV
  | Occupation number:      2.00000000

  Lowest unoccupied state (CBM) at     3.47244161 eV
  | Occupation number:      0.00000000

  Overall HOMO-LUMO gap:     20.46426007 eV.

  Total energy components:
  | Sum of eigenvalues            :          -1.24887570 Ha         -33.98363693 eV
  | XC energy correction          :           0.69291037 Ha          18.85505037 eV
  | XC potential correction       :           0.00000000 Ha           0.00000000 eV
  | Free-atom electrostatic energy:          -0.23839448 Ha          -6.48704382 eV
  | Hartree energy correction     :          -0.33330570 Ha          -9.06970965 eV
  | Entropy correction            :           0.00000000 Ha           0.00000000 eV
  | ---------------------------
  | Total energy                  :          -1.12766552 Ha         -30.68534003 eV
  | Total energy, T -> 0          :          -1.12766552 Ha         -30.68534003 eV  <-- do not rely on this value for anything but (periodic) metals
  | Electronic free energy        :          -1.12766552 Ha         -30.68534003 eV

  Derived energy quantities:
  | Kinetic energy                :           1.22999152 Ha          33.46977207 eV
  | Electrostatic energy          :          -1.66474667 Ha         -45.30006172 eV
  | Energy correction for multipole
  | error in Hartree potential    :          -0.00005662 Ha          -0.00154075 eV
  | Sum of eigenvalues per atom                           :         -16.99181847 eV
  | Total energy (T->0) per atom                          :         -15.34267001 eV  <-- do not rely on this value for anything but (periodic) metals
  | Electronic free energy per atom                       :         -15.34267001 eV

  Self-consistency convergence accuracy:
  | Change of charge density      : 0.1985E-06
  | Change of sum of eigenvalues  : 0.1113E-04 eV
  | Change of total energy        : -.2064E-04 eV

  End self-consistency iteration #    10       :  max(cpu_time)    wall_clock(cpu1)
  | Time for this iteration                    :        0.772 s           0.770 s
  | Charge density update                      :        0.128 s           0.128 s
  | Density mixing                             :        0.032 s           0.033 s
  | Hartree multipole update                   :        0.060 s           0.060 s
  | Hartree multipole summation                :        0.252 s           0.252 s
  | Integration                                :        0.284 s           0.281 s
  | Fock matrix evaluation                     :        0.012 s           0.012 s
  | Solution of K.-S. eqns.                    :        0.004 s           0.004 s
  | Total energy evaluation                    :        0.000 s           0.000 s
------------------------------------------------------------

------------------------------------------------------------
          Begin self-consistency iteration #   11

  Date     :  20140812, Time     :  111403.501
------------------------------------------------------------
  Evaluating new KS density.
  Integration grid: deviation in total charge (<rho> - N_e) =  -4.218847E-15
  Pulay mixing of updated and previous charge densities.

  Evaluating partitioned Hartree potential by multipole expansion.
  | Analytical far-field extrapolation by fixed multipoles:
[...]
  Time summed over all CPUs for potential: real work        0.936 s, elapsed        0.940 s
  | RMS charge density error from multipole expansion :   0.160547E-02

  Integrating Hamiltonian matrix: batch-based integration.
  Time summed over all CPUs for integration: real work        1.034 s, elapsed        1.047 s
  Evaluating the exchange matrix ... 

  Updating Kohn-Sham eigenvalues, eigenvectors, occupation numbers, and Fermi level.
  Solving generalized eigenproblem
  Updating Kohn-Sham eigenvalues and eigenfunctions.
  Solving standard eigenvalue problem for transformed Hamiltonian.
  Determining occupation numbers for Kohn-Sham eigenstates.
  | Chemical potential (Fermi level) in eV                 : -.67596888E+01
  | Error in electron count due to remaining E_F inaccuracy: 0.00000000E+00
  | Maximum occupation number of highest empty state:  0.00E+00

  Highest occupied state (VBM) at    -16.99181903 eV
  | Occupation number:      2.00000000

  Lowest unoccupied state (CBM) at     3.47244151 eV
  | Occupation number:      0.00000000

  Overall HOMO-LUMO gap:     20.46426054 eV.

  Total energy components:
  | Sum of eigenvalues            :          -1.24887574 Ha         -33.98363805 eV
  | XC energy correction          :           0.69291038 Ha          18.85505070 eV
  | XC potential correction       :           0.00000000 Ha           0.00000000 eV
  | Free-atom electrostatic energy:          -0.23839448 Ha          -6.48704382 eV
  | Hartree energy correction     :          -0.33330564 Ha          -9.06970803 eV
  | Entropy correction            :           0.00000000 Ha           0.00000000 eV
  | ---------------------------
  | Total energy                  :          -1.12766549 Ha         -30.68533920 eV
  | Total energy, T -> 0          :          -1.12766549 Ha         -30.68533920 eV  <-- do not rely on this value for anything but (periodic) metals
  | Electronic free energy        :          -1.12766549 Ha         -30.68533920 eV

  Derived energy quantities:
  | Kinetic energy                :           1.22999153 Ha          33.46977241 eV
  | Electrostatic energy          :          -1.66474664 Ha         -45.30006090 eV
  | Energy correction for multipole
  | error in Hartree potential    :          -0.00005662 Ha          -0.00154076 eV
  | Sum of eigenvalues per atom                           :         -16.99181903 eV
  | Total energy (T->0) per atom                          :         -15.34266960 eV  <-- do not rely on this value for anything but (periodic) metals
  | Electronic free energy per atom                       :         -15.34266960 eV

  Self-consistency convergence accuracy:
  | Change of charge density      : 0.1579E-07
  | Change of sum of eigenvalues  : -.1119E-05 eV
  | Change of total energy        : 0.8303E-06 eV

  Writing Kohn-Sham eigenvalues.

  State    Occupation    Eigenvalue [Ha]    Eigenvalue [eV]
      1       2.00000          -0.624438          -16.99182
      2       0.00000           0.127610            3.47244
      3       0.00000           0.139278            3.78994
      4       0.00000           0.367997           10.01370
      5       0.00000           0.367997           10.01370
      6       0.00000           0.451388           12.28288
      7       0.00000           0.539999           14.69413
      8       0.00000           0.539999           14.69413
      9       0.00000           0.555481           15.11541
     10       0.00000           0.775532           21.10330
     11       0.00000           1.143308           31.11099
     12       0.00000           1.143308           31.11099
     13       0.00000           1.372081           37.33622
     14       0.00000           1.524751           41.49058
     15       0.00000           1.577706           42.93157
     16       0.00000           1.577706           42.93157
     17       0.00000           1.620322           44.09120
     18       0.00000           1.620322           44.09120
     19       0.00000           1.679736           45.70793
     20       0.00000           1.759070           47.86673
     21       0.00000           1.759070           47.86673
     22       0.00000           1.811169           49.28441
     23       0.00000           1.811169           49.28441
     24       0.00000           2.727610           74.22203
     25       0.00000           3.213923           87.45529
     26       0.00000           3.213923           87.45529
     27       0.00000           3.471508           94.46454
     28       0.00000           3.471508           94.46454
     29       0.00000           3.802912          103.48249
     30       0.00000           4.125946          112.27269
     31       0.00000           4.320819          117.57547
     32       0.00000           4.320820          117.57550
     33       0.00000           4.655585          126.68490
     34       0.00000           4.711931          128.21817
     35       0.00000           4.711931          128.21817
     36       0.00000           4.956053          134.86107
     37       0.00000           4.956053          134.86107
     38       0.00000           5.110574          139.06579
     39       0.00000           5.110574          139.06580
     40       0.00000           5.523998          150.31565
     41       0.00000           5.711970          155.43061
     42       0.00000           5.711970          155.43061
     43       0.00000           5.913073          160.90291
     44       0.00000           5.913074          160.90292
     45       0.00000           6.262203          170.40322
     46       0.00000           6.262203          170.40322
     47       0.00000           7.015517          190.90194
     48       0.00000           8.191725          222.90818
     49       0.00000           8.191732          222.90836
     50       0.00000           8.380299          228.03955
     51       0.00000           9.854587          268.15696
     52       0.00000           9.854587          268.15696
     53       0.00000          11.200926          304.79271
     54       0.00000          11.200926          304.79271
     55       0.00000          13.276352          361.26793
     56       0.00000          16.260854          442.48034
     57       0.00000          18.004714          489.93319
     58       0.00000          18.004714          489.93319
     59       0.00000          19.334795          526.12653
     60       0.00000          28.198965          767.33287
     61       0.00000          29.186206          794.19708

  Highest occupied state (VBM) at    -16.99181903 eV
  | Occupation number:      2.00000000

  Lowest unoccupied state (CBM) at     3.47244151 eV
  | Occupation number:      0.00000000

  Overall HOMO-LUMO gap:     20.46426054 eV.

  Self-consistency cycle converged.

  End self-consistency iteration #    11       :  max(cpu_time)    wall_clock(cpu1)
  | Time for this iteration                    :        0.748 s           0.749 s
  | Charge density update                      :        0.128 s           0.128 s
  | Density mixing                             :        0.036 s           0.036 s
  | Hartree multipole update                   :        0.060 s           0.062 s
  | Hartree multipole summation                :        0.236 s           0.236 s
  | Integration                                :        0.264 s           0.262 s
  | Fock matrix evaluation                     :        0.020 s           0.019 s
  | Solution of K.-S. eqns.                    :        0.004 s           0.004 s
  | Total energy evaluation                    :        0.004 s           0.001 s
------------------------------------------------------------

  Energy and forces in a compact form:
  | Total energy uncorrected      :         -0.306853391956267E+02 eV
  | Total energy corrected        :         -0.306853391956267E+02 eV  <-- do not rely on this value for anything but (periodic) metals
  | Electronic free energy        :         -0.306853391956267E+02 eV

  ------------------------------------ 
  Start decomposition of the XC Energy 
  ------------------------------------ 
  Hartree-Fock part   :          0.692910377 Ha             18.855050704 eV
  ------------------------------------ 
  X Energy            :          0.692910377 Ha             18.855050704 eV
  C Energy GGA        :          0.000000000 Ha              0.000000000 eV
  Total XC Energy     :          0.692910377 Ha             18.855050704 eV
  LDA X and C from self-consistent density 
  X Energy LDA        :         -0.595413039 Ha            -16.202013152 eV
  C Energy LDA        :         -0.096569813 Ha             -2.627798321 eV
  ------------------------------------ 
  End decomposition of the XC Energy 
  ------------------------------------ 
---------------------------------------------
---------------------------------------------
 | MP2 calculation starts ...
---------------------------------------------

  | Note : Resolution of identity applied 
  | Note : Non spin-polarized system 
---------------------------------------------
  | Homo level                                        1
  | Lumo level                                        2
  | Total Number of states                           61
  | Number of k-points                                1
  | Homo-Lumo Gap                            0.75204775 Ha         20.46426054 eV
---------------------------------------------
  The ovlp_3KS matrix takes another      0 MiB x      4 procs =       0.000 GiB.


---------------------------------------------
| Sum of correlation terms 
---------------------------------------------
  | Pair state     1                    :         -0.89226027 eV         -0.89226027 eV

---------------------------------------------
| Correlation energy spectrum 
---------------------------------------------
  |     2    :          0.12760988        -0.00111138
  |     3    :          0.13927757        -0.00114374
  |     4    :          0.36799653        -0.00173090
  |     5    :          0.36799653        -0.00173090
  |     6    :          0.45138753        -0.00467187
  |     7    :          0.53999923        -0.00006836
  |     8    :          0.53999923        -0.00006836
  |     9    :          0.55548104        -0.00009149
  |    10    :          0.77553196        -0.00329055
  |    11    :          1.14330782        -0.00019459
  |    12    :          1.14330789        -0.00019459
  |    13    :          1.37208095        -0.00417463
  |    14    :          1.52475084        -0.00014514
  |    15    :          1.57770622        -0.00240019
  |    16    :          1.57770622        -0.00240019
  |    17    :          1.62032170        -0.00026074
  |    18    :          1.62032170        -0.00026074
  |    19    :          1.67973554        -0.00034970
  |    20    :          1.75906994        -0.00004006
  |    21    :          1.75907010        -0.00004006
  |    22    :          1.81116875        -0.00028899
  |    23    :          1.81116875        -0.00028899
  |    24    :          2.72760960        -0.00194044
  |    25    :          3.21392275        -0.00006161
  |    26    :          3.21392275        -0.00006161
  |    27    :          3.47150805        -0.00020058
  |    28    :          3.47150805        -0.00020058
  |    29    :          3.80291164        -0.00049037
  |    30    :          4.12594559        -0.00116950
  |    31    :          4.32081908        -0.00018102
  |    32    :          4.32082030        -0.00018102
  |    33    :          4.65558462        -0.00011591
  |    34    :          4.71193127        -0.00002140
  |    35    :          4.71193127        -0.00002140
  |    36    :          4.95605337        -0.00014743
  |    37    :          4.95605337        -0.00014743
  |    38    :          5.11057386        -0.00010069
  |    39    :          5.11057422        -0.00010069
  |    40    :          5.52399844        -0.00020134
  |    41    :          5.71196986        -0.00048619
  |    42    :          5.71196986        -0.00048619
  |    43    :          5.91307335        -0.00003948
  |    44    :          5.91307359        -0.00003948
  |    45    :          6.26220330        -0.00011733
  |    46    :          6.26220330        -0.00011733
  |    47    :          7.01551724        -0.00008610
  |    48    :          8.19172509        -0.00004910
  |    49    :          8.19173158        -0.00004910
  |    50    :          8.38029925        -0.00033305
  |    51    :          9.85458715        -0.00010406
  |    52    :          9.85458715        -0.00010406
  |    53    :         11.20092633        -0.00009545
  |    54    :         11.20092633        -0.00009545
  |    55    :         13.27635227        -0.00012582
  |    56    :         16.26085363        -0.00007095
  |    57    :         18.00471394        -0.00002598
  |    58    :         18.00471394        -0.00002598
  |    59    :         19.33479475        -0.00000977
  |    60    :         28.19896481        -0.00001891
  |    61    :         29.18620610        -0.00002099
---------------------------------------------
 
 
 
          ---------------------------------------------
          | MP2 calculation comes to finish ...  
 
          ---------------------------------------------
          | Total time for calculating MP2 correction              :        0.004 s

          ---------------------------------------------

---------------------------------------------
  | HF Energy                      :         -1.12766549 Ha        -30.68533920 eV
  | MP2 correction                 :         -0.03278996 Ha         -0.89226027 eV
---------------------------------------------
  | Total Energy + MP2 correction  :         -1.16045545 Ha        -31.57759946 eV
---------------------------------------------

------------------------------------------------------------------------------
  Final output of selected total energy values:

  The following output summarizes some interesting total energy values
  at the end of a run (AFTER all relaxation, molecular dynamics, etc.).

  | Total energy of the DFT / Hartree-Fock s.c.f. calculation      :            -30.685339196 eV
  | Final zero-broadening corrected energy (caution - metals only) :            -30.685339196 eV
  | Total energy after the post-s.c.f. correlation calculation     :            -31.577599463 eV
  | For reference only, the value of 1 Hartree used in FHI-aims is :             27.211384500 eV

  Before relying on these values, please be sure to understand exactly which
  total energy value is referred to by a given number. Different objects may
  all carry the same name 'total energy'. Definitions:

  Total energy of the DFT / Hartree-Fock s.c.f. calculation:
  | Note that this energy does not include ANY quantities calculated after the
  | s.c.f. cycle, in particular not ANY RPA, MP2, etc. many-body perturbation terms.

  Final zero-broadening corrected energy:
  | For metallic systems only, a broadening of the occupation numbers at the Fermi
  | level can be extrapolated back to zero broadening by an electron-gas inspired
  | formula. For all systems that are not real metals, this value can be
  | meaningless and should be avoided.

  Total energy of the post-s.c.f. correlation calculation        :
  | The actual meaning of this energy depends on the setting for the 'total_energy_method'
  | keyword (MP2, RPA, rPT2, etc). If not sure, compare to the results listed above.

------------------------------------------------------------------------------

  Methods described in the following list of references were used in this FHI-aims run.
  If you publish the results, please make sure to cite these reference if they apply.
  FHI-aims is an academic code, and for our developers (often, Ph.D. students
  and postdocs), scientific credit in the community is essential.
  Thank you for helping us!

  For any use of FHI-aims, please cite:

    Volker Blum, Ralf Gehrke, Felix Hanke, Paula Havu, Ville Havu,
    Xinguo Ren, Karsten Reuter, and Matthias Scheffler,
    "Ab initio molecular simulations with numeric atom-centered orbitals"
    Computer Physics Communications 180, 2175-2196 (2009).
    http://dx.doi.org/10.1016/j.cpc.2009.06.022

  For Hartree-Fock, hybrid functionals, or many-body perturbation theory used in your run, please cite:

    Xinguo Ren, Patrick Rinke, Volker Blum, Juergen Wieferink, Alex Tkatchenko,
    Andrea Sanfilippo, Karsten Reuter, and Matthias Scheffler,
    "Resolution-of-identity approach to Hartree-Fock, hybrid density functionals,
     RPA, MP2, and GW with numeric atom-centered orbital basis functions"
    New Journal of Physics 14, 053020 (2012).
    http://dx.doi.org/10.1088/1367-2630/14/5/053020

  For the NAO-VCC-nZ basis sets used in this calculation, please cite:

    Igor Ying Zhang, Xinguo Ren, Patrick Rinke, Volker Blum, and Matthias Scheffler,
    "Numeric atom-centered-orbital basis sets with valence-correlation consistency from H to Ar"
    New Journal of Physics 15, 123033 (2013).
    http://dx.doi.org/10.1088/1367-2630/15/12/123033

  For the real-space grid partitioning and parallelization used in this calculation, please cite:

    Ville Havu, Volker Blum, Paula Havu, and Matthias Scheffler,
    "Efficient O(N) integration for all-electron electronic
    structure calculation using numerically tabulated basis functions"
    Journal of Computational Physics 228, 8367-8379 (2009).
    http://dx.doi.org/10.1016/j.jcp.2009.08.008

  Of course, there are many other important community references, e.g., those cited in the
  above references. Our list is limited to references that describe implementations in the FHI-aims
  code. The reason is purely practical (length of this list) - please credit others as well.

------------------------------------------------------------
          Leaving FHI-aims.
          Date     :  20140812, Time     :  111404.287

          Computational steps:
          | Number of self-consistency cycles          :           11

          Detailed time accounting                     :  max(cpu_time)    wall_clock(cpu1)
          | Total time                                 :       32.190 s          32.240 s
          | Preparation time                           :        0.176 s           0.208 s
          | Grid partitioning                          :        0.228 s           0.227 s
          | Preloading free-atom quantities on grid    :        0.068 s           0.066 s
          | Free-atom superposition energy             :        0.032 s           0.032 s
          | Total time for integrations                :        3.368 s           3.358 s
          | Product basis setup: Total time            :        0.000 s           0.000 s
          | Product basis: | 3-center integrations     :       22.549 s          22.580 s
          | Product basis: | 2-center integrations     :        0.256 s           0.255 s
          | Product basis: | 2-center linear algebra   :        0.072 s           0.070 s
          | Product basis: | 3-center x 2-center       :        0.024 s           0.023 s
          | Total time evaluating exchange matrix      :        0.160 s           0.149 s
          | Transforming ovlp_3fn to ovlp_3KS          :        0.012 s           0.012 s
          | Total time for solution of K.-S. equations :        0.052 s           0.051 s
          | Total time for density update              :        1.444 s           1.429 s
          | Total time for mixing                      :        0.208 s           0.205 s
          | Total time for Hartree multipole update    :        0.676 s           0.665 s
          | Total time for Hartree multipole sum       :        2.672 s           2.669 s
          | Total time for total energy evaluation     :        0.012 s           0.004 s

          Have a nice day.
------------------------------------------------------------
