  MPI-parallelism will be employed.
------------------------------------------------------------
          Invoking FHI-aims ...
          Version 072414
          Compiled on 2014/08/06 at 00:00:04 on host theobook58.

          When using FHI-aims, please cite the following reference:

          Volker Blum, Ralf Gehrke, Felix Hanke, Paula Havu,
          Ville Havu, Xinguo Ren, Karsten Reuter, and Matthias Scheffler,
          'Ab Initio Molecular Simulations with Numeric Atom-Centered Orbitals: FHI-aims',
          Computer Physics Communications 180, 2175-2196 (2009)

          For any questions about FHI-aims, please visit the aimsclub website
          with its forums and wiki. Contributions to both the forums and the
          wiki are warmly encouraged - they are for you, and everyone is welcome there.

------------------------------------------------------------

  Date     :  20140812, Time     :  111651.085
  Time zero on CPU 1             :   0.160000000000000E-01  s.
  Internal wall clock time zero  :           177074211.085  s.

  Using        4 parallel tasks.
  Task        0 on host theobook58 reporting.
  Task        1 on host theobook58 reporting.
  Task        2 on host theobook58 reporting.
  Task        3 on host theobook58 reporting.

  Performing system and environment tests:
  | Environment variable OMP_NUM_THREADS correctly set to 1.
  | Stacksize not measured: no C compiler
  | Checking for scalapack...
  | No scalapack compiled in.

  Obtaining array dimensions for all initial allocations:
  
  -----------------------------------------------------------------------
  Parsing control.in (first pass over file, find array dimensions only).
  The contents of control.in will be repeated verbatim below
  unless switched off by setting 'verbatim_writeout .false.' .
  in the first line of control.in .
  -----------------------------------------------------------------------
  
  xc                      hf
  total_energy_method     mp2
  relativistic            none
  occupation_type         integer 0.0001
  mixer                   pulay
  n_max_pulay             10
  charge_mix_param        0.6
  sc_iter_limit           600
  sc_accuracy_rho         1E-6
  sc_accuracy_eev         1E-4
  sc_accuracy_etot        1E-6
  override_illconditioning .true.
  charge                  0
  ################################################################################
  #
  #  FHI-aims code project
  # Igor Ying Zhang and Xinguo Ren, Fritz Haber Institute Berlin, 2012
  #
  #  Suggested "NAO-VCC-4Z" defaults for H atom (to be pasted into control.in file)
  #
  #  Please cite:
  #
  #  Igor Ying Zhang, Xinguo Ren, Patrick Rinke, Volker Blum, and Matthias Scheffler,
  #  "Numeric atom-centered-orbital basis sets with valence-correlation consistency from H to Ar"
  #  New Journal of Physics 15, 123033 (2013).
  #  http://dx.doi.org/10.1088/1367-2630/15/12/123033
  #
  ################################################################################
    species        H
  #     set basis set reference for FHI-aims output
      cite_reference NAO-VCC-2013
  #     global species definitions
      nucleus             1
      mass                1.00794
  #
      l_hartree           6
  #
      cut_pot             4.0  2.0  1.0
      basis_dep_cutoff    0e-4
  #
      radial_base         24 7.0
  radial_multiplier               6
      angular_grids       specified
        division   0.1930   50
        division   0.3175  110
        division   0.4293  194
        division   0.5066  302
        division   0.5626  434
        division   0.5922  590
  #      division   0.6227  974
  #      division   0.6868 1202
        outer_grid  770
  #      outer_grid  434
  ################################################################################
  #
  #  Definition of "minimal" basis
  #
  ################################################################################
  #     valence basis states
      valence      1  s   1.
  #     ion occupancy
      ion_occ      1  s   0.5
  ################################################################################
  
  
   basis_acc              1e-04
  #============================================
  # Optimization in      H for       NAO-VCC-4Z
  #============================================
  # (sp) correlation set
   hydro     1     s      1.15655525
   hydro     1     s      1.68684502
   hydro     1     s      2.46027686
   hydro     2     p      2.92145897
   hydro     2     p      4.14501835
   hydro     2     p      5.88102632
  # polarization set
   hydro     3     d      6.41446874
   hydro     3     d      7.67536483
   hydro     4     f     10.80870049
  # (sp) enhanced minimal set
   hydro     1     s      3.58833335
  
  -----------------------------------------------------------------------
  Completed first pass over input file control.in .
  -----------------------------------------------------------------------
  
  
  -----------------------------------------------------------------------
  Parsing geometry.in (first pass over file, find array dimensions only).
  The contents of geometry.in will be repeated verbatim below
  unless switched off by setting 'verbatim_writeout .false.' .
  in the first line of geometry.in .
  -----------------------------------------------------------------------
  
  atom             0.0             0.0             0.0    H
  atom             0.0             0.0             1.2    H
  
  -----------------------------------------------------------------------
  Completed first pass over input file geometry.in .
  -----------------------------------------------------------------------
  

  Basic array size parameters:
  | Number of species                 :        1
  | Number of atoms                   :        2
  | Max. basis fn. angular momentum   :        3
  | Max. atomic/ionic basis occupied n:        1
  | Max. number of basis fn. types    :        2
  | Max. radial fns per species/type  :       10
  | Max. logarithmic grid size        :     1131
  | Max. radial integration grid size :      149
  | Max. angular integration grid size:      770
  | Max. angular grid division number :        8
  | Radial grid for Hartree potential :     1131
  | Number of spin channels           :        1

------------------------------------------------------------
          Reading file control.in.
------------------------------------------------------------
 
  Hartree-Fock calculation starts ...... 
  Attention: this version of Hartree-Fock employs an auxiliary basis. 
 
  MP2 correlation energy calculation will be started after the DFT/HF calculation.
  Non-relativistic treatment of kinetic energy.
  Occupation type: Integer occupation.
  Using pulay charge density mixing.
  Pulay mixing - number of memorized iterations:   10
  Charge density mixing - mixing parameter:     0.6000
  Maximum number of s.-c. iterations  :   600
  Convergence accuracy of self-consistent charge density: 0.1000E-05
  Convergence accuracy of sum of eigenvalues: 0.1000E-03
  Convergence accuracy of total energy: 0.1000E-05
  override_illconditioning: Explicitly overriding any built-in checks for an ill-conditioned overlap matrix.
  *** WARNING: If you use this flag, you should really know what you are doing.
  *** DO NOT keep this flag set by default in all your control.in files.
  Charge =   0.000000E+00: Neutral system requested explicitly.
 
  Reading configuration options for species H                   .
  | Found nuclear charge :   1.0000
  | Found atomic mass :    1.00794000000000      amu
  | Found l_max for Hartree potential  :   6
  | Found cutoff potl. onset [A], width [A], scale factor :    4.00000    2.00000    1.00000
  | Threshold for basis-dependent cutoff potential is   0.000000E+00
  | Found data for basic radial integration grid :    24 points, outermost radius =    7.000 A
  | Found multiplier for basic radial grid :   6
  | Found angular grid specification: user-specified.
  | Specified grid contains     7 separate shells.
  | Check grid settings after all constraints further below.
  | Found free-atom valence shell :  1 s   1.000
  | No ionic wave fns used. Skipping ion_occ.
  | Found basis singularity cutoff : 0.1000E-03
  | Found hydrogenic basis function :  1 s   1.157
  | Found hydrogenic basis function :  1 s   1.687
  | Found hydrogenic basis function :  1 s   2.460
  | Found hydrogenic basis function :  2 p   2.921
  | Found hydrogenic basis function :  2 p   4.145
  | Found hydrogenic basis function :  2 p   5.881
  | Found hydrogenic basis function :  3 d   6.414
  | Found hydrogenic basis function :  3 d   7.675
  | Found hydrogenic basis function :  4 f  10.809
  | Found hydrogenic basis function :  1 s   3.588
  Species H                   : Missing cutoff potential type.
  Defaulting to exp(1/x)/(1-x)^2 type cutoff potential.
  Species H : No 'logarithmic' tag. Using default grid for free atom:
  | Default logarithmic grid data [bohr] : 0.1000E-03 0.1000E+03 0.1012E+01
  Species H                   : Using default innermost maximum threshold i_radial=  2 for radial functions.
  Species H                   : Default cutoff onset for free atom density etc. is infinite
  since the product basis is used (hybrid functionals, Hartree-Fock, GW etc.).
  Species H                   : Basic radial grid will be enhanced according to radial_multiplier =   6, to contain   149 grid points.
 
  Finished reading input file 'control.in'. Consistency checks are next.
 
  Species H: Using default value for prodbas_acc =   1.000000E-02.
  Species H: Using default value max_l_prodbas =     5.
  Target number of points in a grid batch is not set. Defaulting to  100
  Method for grid partitioning is not set. Defaulting to parallel hash+maxmin partitioning.
  Batch size limit is not set. Defaulting to    200
  By default, will store active basis functions for each batch.
  If in need of memory, prune_basis_once .false. can be used to disable this option.
  communication_type for Hartree potential was not specified.
  Defaulting to calc_hartree .
  Pulay mixer: Number of initial linear mixing iterations not set.
  Defaulting to    0 iterations.
  Work space size for distributed Hartree potential not set.
  Defaulting to   0.200000E+03 MB.
  Algorithm-dependent basis array size parameters:
  | n_max_pulay                         :       10
  Calculation of forces was not defined in control.in. No forces will be calculated.
  Geometry relaxation not requested: no relaxation will be performed.
  No accuracy limit for integral partition fn. given. Defaulting to 0.1000E-14.
  No threshold value for u(r) in integrations given. Defaulting to 0.1000E-05.
  No accuracy for occupation numbers given. Defaulting to 0.1000E-07.
  No threshold value for occupation numbers given. Defaulting to 0.0000E+00.
  No accuracy for fermi level given. Defaulting to 0.1000E-19.
  Maximum # of iterations to find E_F not set. Defaulting to  200.
  Preferred method for the eigenvalue solver ('KS_method') not specified in 'control.in'.
  Calling blacs routine to test compilation state
  The best choice would be 'elpa', but your version of FHI-aims is compiled without scalapack support.
  Defaulting to 'lapack_fast' instead (serial solution, time will not improve with more CPUs).
  Will not use alltoall communication since running on < 1024 CPUs.
  Threshold for basis singularities not set.
  Default threshold for basis singularities: 0.1000E-04
  partition_type (choice of integration weights) for integrals was not specified.
  | Using a version of the partition function of Stratmann and coworkers ('stratmann_smoother').
  | At each grid point, the set of atoms used to build the partition table is smoothly restricted to
  | only those atoms whose free-atom density would be non-zero at that grid point.
  Partitioning for Hartree potential was not defined. Using partition_type for integrals.
  | Adjusted default value of keyword multip_moments_threshold to:       0.10000000E-11
  | This value may affect high angular momentum components of the Hartree potential in periodic systems.
  Spin handling was not defined in control.in. Defaulting to unpolarized case.
  Threshold for auxiliary basis singularities not set.
  Default threshold for auxiliary basis singularities: 0.1000E-04
  No q(lm)/r^(l+1) cutoff set for long-range Hartree potential.
  | Using default value of  0.100000E-09 .
  | Verify using the multipole_threshold keyword.
  Defaulting to new monopole extrapolation.
  Density update method: automatic selection selected.
  Default to 1D ("use_logsbt") integrations for auxiliary 2-center integrals.
  Default onset of logarithmic r-grid for SBT is-38.000000000000
  Default onset of logarithmic k-grid for SBT is-25.000000000000
  Default range of logarithmic r- and k-grid for SBT is 45.000000000000
  Default number of logarithmic r- and k-grid for SBT is  4096
------------------------------------------------------------


------------------------------------------------------------
          Reading geometry description geometry.in.
------------------------------------------------------------
  Input structure read successfully.
  The structure contains        2 atoms,  and a total of          2.000 electrons.

  Input geometry:
  | No unit cell requested.
  | Atomic structure:
  |       Atom                x [A]            y [A]            z [A]
  |    1: Species H              0.000000         0.000000         0.000000
  |    2: Species H              0.000000         0.000000         1.200000
  |

  | The smallest distance between any two atoms is         1.20000000 AA.
  |
  | The first atom of this pair is atom number                      1 .
  | The second atom of this pair is atom number                     2 .

  Number of empty states per atom not set in control.in .
  | Since you are using a method that relies on the unoccupied spectrum
  | (MP2,GW,RPA et al.), will use the full Hamiltonian size (see below)
  | as the max. possible number of states (occupied plus empty).

  Structure-dependent array size parameters: 
  | Maximum number of distinct radial functions  :       11
  | Maximum number of basis functions            :       62
  | Number of Kohn-Sham states (occupied + empty):       62
------------------------------------------------------------

------------------------------------------------------------
          Preparing all fixed parts of the calculation.
------------------------------------------------------------
  Determining machine precision:
    2.225073858507201E-308
  Setting up grids for atomic and cluster calculations.

  Creating wave function, potential, and density for free atoms.

  Species: H

  List of occupied orbitals and eigenvalues:
    n    l              occ      energy [Ha]    energy [eV]
    1    0           1.0000        -0.233457        -6.3527

  Creating fixed part of basis set: Ionic, confined, hydrogenic.
 
  H                    hydrogenic:
 
  List of hydrogenic basis orbitals: 
    n    l      effective z      eigenvalue [eV]  inner max. [A]     outer max. [A]     outer radius [A]   
    1    0         1.156555       -18.1992           0.460320           0.460320           5.243229
    1    0         1.686845       -38.7143           0.315118           0.315118           4.932336
    1    0         2.460277       -82.3547           0.215718           0.215718           3.815562
    2    1         2.921459       -29.0309           0.723605           0.723605           5.243229
    2    1         4.145018       -58.4405           0.507614           0.507614           4.813203
    2    1         5.881026      -117.6432           0.360475           0.360475           3.678162
    3    2         6.414469       -62.2013           0.741515           0.741515           4.993004
    3    2         7.675365       -89.0587           0.617279           0.617279           4.583499
    4    3        10.808700       -99.3454           0.778676           0.778676           4.696947
    1    0         3.588333      -175.1887           0.147673           0.147673           2.644120
 

  Adding cutoff potential to free-atom effective potential.
  Creating atomic-like basis functions for current effective potential.

  Species H                   :

  List of atomic basis orbitals and eigenvalues:
    n    l      energy [Ha]    energy [eV]    outer radius [A]
    1    0        -0.233418        -6.3516       5.373006

  Assembling full basis from fixed parts.
  | Species H :   atomic orbital   1 s accepted.
  | Species H :    hydro orbital   1 s accepted.
  | Species H :    hydro orbital   1 s accepted.
  | Species H :    hydro orbital   1 s accepted.
  | Species H :    hydro orbital   1 s accepted.
  | Species H :    hydro orbital   2 p accepted.
  | Species H :    hydro orbital   2 p accepted.
  | Species H :    hydro orbital   2 p accepted.
  | Species H :    hydro orbital   3 d accepted.
  | Species H :    hydro orbital   3 d accepted.
  | Species H :    hydro orbital   4 f accepted.
 
  Basis size parameters after reduction:
  | Total number of radial functions:       11
  | Total number of basis functions :       62
 
  Testing on-site integration grid accuracy.
  |  Species  Function  <phi|h_atom|phi> (log., in eV)  <phi|h_atom|phi> (rad., in eV)
           1        1                 -6.3519216712                 -6.3519215989
           1        2                  8.4716038567                  8.4716058028
           1        3                 58.3749927434                 58.3750109815
           1        4                178.9024737125                178.9026031671
           1        5                456.3642310330                456.3649721232
           1        6                 16.2415699263                 16.2415699338
           1        7                 68.2932618880                 68.2932619123
           1        8                188.3801588017                188.3801587562
           1        9                 49.9849006789                 49.9849006869
           1       10                114.3821731125                114.3821730675
           1       11                 88.0899419283                 88.0899419237

  Preparing densities etc. for the partition functions (integrals / Hartree potential).

  Preparations completed.
  max(cpu_time)          :      0.152 s.
  Wall clock time (cpu1) :      0.174 s.
------------------------------------------------------------

------------------------------------------------------------
          Begin self-consistency loop: Initialization.

          Date     :  20140812, Time     :  111651.263
------------------------------------------------------------

  Initializing index lists of integration centers etc. from given atomic structure:
  | Number of centers in hartree potential         :         2
  | Number of centers in hartree multipole         :         2
  | Number of centers in electron density summation:         2
  | Number of centers in basis integrals           :         2
  | Number of centers in integrals                 :         2
  Partitioning the integration grid into batches with parallel hashing+maxmin method.
  | Number of batches:     1965
  | Maximal batch size:     150
  | Minimal batch size:      65
  | Average batch size:      73.488
  | Standard deviation of batch sizes:      14.657

  Integration load balanced across     4 MPI tasks.
  Work distribution over tasks is as follows:
  Task     0 has      36149 integration points.
  Task     1 has      36089 integration points.
  Task     2 has      36090 integration points.
  Task     3 has      36076 integration points.
  Initializing partition tables, free-atom densities, potentials, etc. across the integration grid (initialize_grid_storage).
  | Original list of interatomic distances with           2 x          2 entries is created.
  | Net number of integration points:   144404
  | of which are non-zero points    :   133526
  Obtaining max. number of non-zero basis functions in each batch (get_n_compute_maxes).
  | Maximal number of non-zero basis functions:       62 in task     0
  | Maximal number of non-zero basis functions:       62 in task     1
  | Maximal number of non-zero basis functions:       62 in task     2
  | Maximal number of non-zero basis functions:       62 in task     3
  Selecting the method for density update.
  Loop over occupied states selected for charge density update.
  Integrating Hamiltonian matrix: batch-based integration.
  Time summed over all CPUs for integration: real work        1.314 s, elapsed        1.423 s
  Integrating overlap matrix.
  Time summed over all CPUs for integration: real work        0.886 s, elapsed        1.050 s

  Updating Kohn-Sham eigenvalues, eigenvectors, occupation numbers, and Fermi level.
  Solving generalized eigenproblem
  Updating Kohn-Sham eigenvalues and eigenfunctions.
  Transforming overlap matrix and checking for singularities.
  Overlap matrix is nonsingular:
  | Lowest eigenvalue:  0.171933E-03
  Solving real generalised eigenvalue problem by standard LAPACK (fast)
  Determining occupation numbers for Kohn-Sham eigenstates.
  | Chemical potential (Fermi level) in eV                 : -.63969116E+01
  | Error in electron count due to remaining E_F inaccuracy: 0.00000000E+00
  | Maximum occupation number of highest empty state:  0.00E+00

  Writing Kohn-Sham eigenvalues.

  State    Occupation    Eigenvalue [Ha]    Eigenvalue [eV]
      1       2.00000          -0.371470          -10.10821
      2       0.00000          -0.098695           -2.68562
      3       0.00000           0.061628            1.67700
      4       0.00000           0.148031            4.02812
      5       0.00000           0.157020            4.27274
      6       0.00000           0.157020            4.27274
      7       0.00000           0.376837           10.25426
      8       0.00000           0.415349           11.30221
      9       0.00000           0.415349           11.30221
     10       0.00000           0.699822           19.04312
     11       0.00000           0.718482           19.55090
     12       0.00000           0.828876           22.55487
     13       0.00000           0.862370           23.46627
     14       0.00000           0.862370           23.46627
     15       0.00000           1.072734           29.19058
     16       0.00000           1.072734           29.19058
     17       0.00000           1.298807           35.34235
     18       0.00000           1.298807           35.34235
     19       0.00000           1.444249           39.30000
     20       0.00000           1.493175           40.63137
     21       0.00000           1.493175           40.63137
     22       0.00000           1.776779           48.34863
     23       0.00000           1.776779           48.34863
     24       0.00000           2.009722           54.68732
     25       0.00000           2.009722           54.68732
     26       0.00000           2.054538           55.90683
     27       0.00000           2.118611           57.65034
     28       0.00000           2.731047           74.31556
     29       0.00000           2.918243           79.40944
     30       0.00000           2.918243           79.40944
     31       0.00000           3.041771           82.77079
     32       0.00000           3.041771           82.77079
     33       0.00000           3.397373           92.44722
     34       0.00000           3.624890           98.63829
     35       0.00000           3.624890           98.63829
     36       0.00000           3.728262          101.45117
     37       0.00000           3.728262          101.45117
     38       0.00000           4.047608          110.14101
     39       0.00000           4.164410          113.31937
     40       0.00000           4.783245          130.15873
     41       0.00000           4.783245          130.15873
     42       0.00000           4.798466          130.57291
     43       0.00000           4.798466          130.57291
     44       0.00000           5.529004          150.45186
     45       0.00000           5.529004          150.45186
     46       0.00000           5.595028          152.24845
     47       0.00000           5.595028          152.24845
     48       0.00000           5.872617          159.80204
     49       0.00000           5.872617          159.80204
     50       0.00000           6.127094          166.72671
     51       0.00000           6.792538          184.83437
     52       0.00000           6.792538          184.83437
     53       0.00000           7.513859          204.46251
     54       0.00000           7.912052          215.29788
     55       0.00000           8.013011          218.04514
     56       0.00000           8.013011          218.04514
     57       0.00000           9.458918          257.39026
     58       0.00000          10.036692          273.11229
     59       0.00000          10.036692          273.11229
     60       0.00000          13.514204          367.74020
     61       0.00000          21.663295          589.48824
     62       0.00000          26.669279          725.70799

  Highest occupied state (VBM) at    -10.10820639 eV
  | Occupation number:      2.00000000

  Lowest unoccupied state (CBM) at    -2.68561686 eV
  | Occupation number:      0.00000000

  Overall HOMO-LUMO gap:      7.42258953 eV.
  Calculating total energy contributions from superposition of free atom densities.

  Total energy components:
  | Sum of eigenvalues            :          -0.74293951 Ha         -20.21641277 eV
  | XC energy correction          :          -0.50198723 Ha         -13.65976756 eV
  | XC potential correction       :           0.65453178 Ha          17.81071606 eV
  | Free-atom electrostatic energy:          -0.50175052 Ha         -13.65332643 eV
  | Hartree energy correction     :           0.00000000 Ha           0.00000000 eV
  | Entropy correction            :           0.00000000 Ha           0.00000000 eV
  | ---------------------------
  | Total energy                  :          -1.09214548 Ha         -29.71879070 eV
  | Total energy, T -> 0          :          -1.09214548 Ha         -29.71879070 eV  <-- do not rely on this value for anything but (periodic) metals
  | Electronic free energy        :          -1.09214548 Ha         -29.71879070 eV

  Derived energy quantities:
  | Kinetic energy                :           0.70140141 Ha          19.08610346 eV
  | Electrostatic energy          :          -1.29155966 Ha         -35.14512660 eV
  | Energy correction for multipole
  | error in Hartree potential    :           0.00000000 Ha           0.00000000 eV
  | Sum of eigenvalues per atom                           :         -10.10820639 eV
  | Total energy (T->0) per atom                          :         -14.85939535 eV  <-- do not rely on this value for anything but (periodic) metals
  | Electronic free energy per atom                       :         -14.85939535 eV
 
 --------------------------------------------
  Constructing auxiliary basis (full product) ...
 
  Product basis:
  | charge radius: extent of product basis function
  | field radius: extent of its Coulomb potential
  | Species   l  charge radius    field radius  multipol momen
  |    H      5     4.813203 A      4.813203 A  2.676041E-15 a.u.
  |    H      4     4.932336 A      4.932336 A  2.417679E-16 a.u.
  |    H      3     5.054418 A      5.054418 A  ************ a.u.
  |    H      4     5.054418 A      5.054418 A  ************ a.u.
  |    H      3     5.116587 A      5.116587 A  1.642688E-15 a.u.
  |    H      2     5.179521 A      5.179521 A  6.126280E-16 a.u.
  |    H      3     5.179521 A      5.179521 A  ************ a.u.
  |    H      2     5.243229 A      5.243229 A  1.485543E-16 a.u.
  |    H      2     5.243229 A      5.243229 A  1.683301E-16 a.u.
  |    H      2     5.243229 A      5.243229 A  ************ a.u.
  |    H      3     5.243229 A      5.243229 A  ************ a.u.
  |    H      1     5.307721 A      5.307721 A  2.416866E-16 a.u.
  |    H      1     5.307721 A      5.307721 A  1.291012E-16 a.u.
  |    H      2     5.307721 A      5.307721 A  7.871382E-16 a.u.
  |    H      0     5.373006 A      5.373006 A  9.519909E-17 a.u.
  |    H      1     5.373006 A      5.373006 A  2.334090E-16 a.u.
  |    H      1     5.373006 A      5.373006 A  ************ a.u.
  |    H      1     5.373006 A      5.373006 A  ************ a.u.
  |    H      1     5.373006 A      5.373006 A  1.823473E-16 a.u.
  |    H      0     5.373006 A      5.439094 A  ************ a.u.
  |    H      0     5.439094 A      5.439094 A  ************ a.u.
  |    H      0     5.439094 A      5.505995 A  9.305319E-17 a.u.
  |    H      0     5.439094 A      5.505995 A  4.082184E-17 a.u.
  |    H      0     5.439094 A      5.505995 A  3.169850E-16 a.u.
  |    H      0     5.439094 A      5.505995 A  2.711689E-16 a.u.
  |    H      5     4.872405 A  1.325110E+02 A           19.619780 a.u.
  |    H      4     5.054418 A  3.771796E+02 A           14.639479 a.u.
  |    H      3     5.243229 A  1.836978E+03 A           11.555842 a.u.
  |    H      2     5.307721 A  2.095310E+04 A            4.940052 a.u.
  |    H      1     5.373006 A  2.512347E+06 A            1.793689 a.u.
  |    H      0     5.439094 A  4.604132E+12 A            0.692368 a.u.

  | Shrink_full_auxil_basis : there are       31  radial auxiliary wave functions
                            accepted and      90 rejected.
  | Shrink_full_auxil_basis : there are totally     286 partial auxiliary wave functions.
 
  | Number of product basis functions per thread :    72
  | Minimal requirement for computer memories :           0.005 Gbs
 
  Basis pair condensation :      1953  -->       1953
 
 ----------------------------------------------------
  Integrating the 3-basis-function Coulomb matrix ...
  | i_atom:            1
  | i_atom:            2
  Integrating the Coulomb interaction matrix for auxiliary basis functions (by atoms)

  SBT integration errors (all should be 'small'):
  large logFT aliasing -> increase N/lnrange
  large SBT aliasing -> decrease lnk0 & increase lnk0+lnrange
  large SBT ringing -> decrease lnr0 & increase lnr0+lnrange
  |            El't  L: logFT-al.   small-k   large-k   small-r   large-r
  Atomic logSBT for 2-center Coulomb matrix    :  max(cpu_time)    wall_clock(cpu1)
  | Multiplication with kernel                 :        0.020 s           0.010 s
  | Main matrix multiplication                 :        0.068 s           0.045 s
  | Analytic angular integration               :        0.004 s           0.001 s
  | Kernel construction                        :        0.004 s           0.001 s
  | Overall 2-center overlap time              :        0.092 s           0.061 s

  Difference of Coulomb matrix to its transposed:  3.3307E-16
  Task     0: Eigenvalues of the Coulomb matrix range from    2.0000E+00 to    1.1794E-08.
  Task     0: Using      281   eigenvalues out of rank      286   Coulomb matrix (auxiliary basis).
  Task     0: Still using eigenvalue     3.5207E-04 while cutting     9.4930E-06 in Coulomb matrix.
 
  Multiplying V^-0.5 x ovlp_3fn (1d-scalapack)

  Initialize hartree_potential_storage
  Max. number of atoms included in rho_multipole:            2

  End scf initialization - timings             :  max(cpu_time)    wall_clock(cpu1)
  | Time for scf. initialization               :       24.978 s          25.008 s
  | Boundary condition initialization          :        0.000 s           0.001 s
  | Integration                                :        0.620 s           0.619 s
  | Solution of K.-S. eqns.                    :        0.008 s           0.007 s
  | Grid partitioning                          :        0.248 s           0.250 s
  | Preloading free-atom quantities on grid    :        0.116 s           0.113 s
  | Free-atom superposition energy             :        0.052 s           0.049 s
  | Total energy evaluation                    :        0.000 s           0.003 s
  | Product basis setup: Total time            :       23.821 s          23.849 s
  | Product basis: | 3-center integrations     :       23.341 s          23.311 s
  | Product basis: | 2-center integrations     :        0.252 s           0.251 s
  | Product basis: | 2-center linear algebra   :        0.072 s           0.072 s
  | Product basis: | 3-center x 2-center       :        0.036 s           0.035 s
------------------------------------------------------------

------------------------------------------------------------
          Begin self-consistency iteration #    1

  Date     :  20140812, Time     :  111716.271
------------------------------------------------------------
  Evaluating new KS density.
  Integration grid: deviation in total charge (<rho> - N_e) =  -6.661338E-15
  Pulay mixing of updated and previous charge densities.

  Evaluating partitioned Hartree potential by multipole expansion.
  | Analytical far-field extrapolation by fixed multipoles:
  | Hartree multipole sum: apparent total charge =  -0.997925E-07
  Summing up the Hartree potential.
  Time summed over all CPUs for potential: real work        0.969 s, elapsed        0.985 s
  | RMS charge density error from multipole expansion :   0.395935E-03

  Integrating Hamiltonian matrix: batch-based integration.
  Time summed over all CPUs for integration: real work        1.056 s, elapsed        1.098 s
  Evaluating the exchange matrix ... 

  Updating Kohn-Sham eigenvalues, eigenvectors, occupation numbers, and Fermi level.
  Solving generalized eigenproblem
  Updating Kohn-Sham eigenvalues and eigenfunctions.
  Solving real generalised eigenvalue problem by standard LAPACK (fast)
  Determining occupation numbers for Kohn-Sham eigenstates.
  | Chemical potential (Fermi level) in eV                 : -.60769869E+01
  | Error in electron count due to remaining E_F inaccuracy: 0.00000000E+00
  | Maximum occupation number of highest empty state:  0.00E+00

  Writing Kohn-Sham eigenvalues.

  State    Occupation    Eigenvalue [Ha]    Eigenvalue [eV]
      1       2.00000          -0.511982          -13.93174
      2       0.00000           0.065332            1.77776
      3       0.00000           0.156068            4.24683
      4       0.00000           0.283851            7.72397
      5       0.00000           0.336883            9.16704
      6       0.00000           0.336883            9.16704
      7       0.00000           0.564464           15.35985
      8       0.00000           0.600300           16.33500
      9       0.00000           0.600300           16.33500
     10       0.00000           0.898181           24.44075
     11       0.00000           0.921584           25.07757
     12       0.00000           1.058033           28.79054
     13       0.00000           1.093730           29.76191
     14       0.00000           1.093730           29.76191
     15       0.00000           1.325485           36.06829
     16       0.00000           1.325485           36.06829
     17       0.00000           1.533756           41.73563
     18       0.00000           1.533756           41.73563
     19       0.00000           1.762786           47.96784
     20       0.00000           1.782923           48.51579
     21       0.00000           1.782923           48.51579
     22       0.00000           2.070997           56.35469
     23       0.00000           2.070997           56.35469
     24       0.00000           2.284284           62.15852
     25       0.00000           2.284284           62.15852
     26       0.00000           2.316017           63.02202
     27       0.00000           2.381863           64.81379
     28       0.00000           3.086503           83.98803
     29       0.00000           3.222513           87.68904
     30       0.00000           3.222513           87.68904
     31       0.00000           3.362362           91.49452
     32       0.00000           3.362362           91.49452
     33       0.00000           3.791052          103.15978
     34       0.00000           3.938932          107.18380
     35       0.00000           3.938932          107.18380
     36       0.00000           4.103800          111.67008
     37       0.00000           4.103800          111.67008
     38       0.00000           4.429701          120.53829
     39       0.00000           4.586414          124.80268
     40       0.00000           5.141117          139.89691
     41       0.00000           5.141117          139.89691
     42       0.00000           5.186472          141.13108
     43       0.00000           5.186472          141.13108
     44       0.00000           5.915107          160.95826
     45       0.00000           5.915107          160.95826
     46       0.00000           5.972631          162.52356
     47       0.00000           5.972631          162.52356
     48       0.00000           6.285084          171.02585
     49       0.00000           6.285084          171.02585
     50       0.00000           6.543647          178.06169
     51       0.00000           7.186919          195.56601
     52       0.00000           7.186919          195.56601
     53       0.00000           7.895336          214.84302
     54       0.00000           8.369291          227.74001
     55       0.00000           8.495620          231.17758
     56       0.00000           8.495620          231.17758
     57       0.00000           9.974232          271.41267
     58       0.00000          10.530724          286.55557
     59       0.00000          10.530724          286.55557
     60       0.00000          14.060295          382.60008
     61       0.00000          22.249760          605.44676
     62       0.00000          27.268513          742.01398

  Highest occupied state (VBM) at    -13.93173627 eV
  | Occupation number:      2.00000000

  Lowest unoccupied state (CBM) at     1.77776249 eV
  | Occupation number:      0.00000000

  Overall HOMO-LUMO gap:     15.70949876 eV.

  Total energy components:
  | Sum of eigenvalues            :          -1.02396379 Ha         -27.86347253 eV
  | XC energy correction          :           0.54786093 Ha          14.90805444 eV
  | XC potential correction       :           0.00000000 Ha           0.00000000 eV
  | Free-atom electrostatic energy:          -0.50175052 Ha         -13.65332643 eV
  | Hartree energy correction     :          -0.08736241 Ha          -2.37725221 eV
  | Entropy correction            :           0.00000000 Ha           0.00000000 eV
  | ---------------------------
  | Total energy                  :          -1.06521580 Ha         -28.98599673 eV
  | Total energy, T -> 0          :          -1.06521580 Ha         -28.98599673 eV  <-- do not rely on this value for anything but (periodic) metals
  | Electronic free energy        :          -1.06521580 Ha         -28.98599673 eV

  Derived energy quantities:
  | Kinetic energy                :           0.84769519 Ha          23.06695965 eV
  | Electrostatic energy          :          -1.36505006 Ha         -37.14490194 eV
  | Energy correction for multipole
  | error in Hartree potential    :          -0.00005783 Ha          -0.00157358 eV
  | Sum of eigenvalues per atom                           :         -13.93173627 eV
  | Total energy (T->0) per atom                          :         -14.49299836 eV  <-- do not rely on this value for anything but (periodic) metals
  | Electronic free energy per atom                       :         -14.49299836 eV

  Self-consistency convergence accuracy:
  | Change of charge density      : 0.7905E-01
  | Change of sum of eigenvalues  : -.7647E+01 eV
  | Change of total energy        : 0.7328E+00 eV

  End self-consistency iteration #     1       :  max(cpu_time)    wall_clock(cpu1)
  | Time for this iteration                    :        0.736 s           0.737 s
  | Charge density update                      :        0.136 s           0.136 s
  | Density mixing                             :        0.004 s           0.002 s
  | Hartree multipole update                   :        0.064 s           0.062 s
  | Hartree multipole summation                :        0.248 s           0.248 s
  | Integration                                :        0.276 s           0.274 s
  | Fock matrix evaluation                     :        0.012 s           0.012 s
  | Solution of K.-S. eqns.                    :        0.004 s           0.001 s
  | Total energy evaluation                    :        0.000 s           0.001 s
------------------------------------------------------------

------------------------------------------------------------
          Begin self-consistency iteration #    2

  Date     :  20140812, Time     :  111717.008
------------------------------------------------------------
  Evaluating new KS density.
  Integration grid: deviation in total charge (<rho> - N_e) =   4.884981E-15
  Pulay mixing of updated and previous charge densities.

  Evaluating partitioned Hartree potential by multipole expansion.
  | Analytical far-field extrapolation by fixed multipoles:
  | Hartree multipole sum: apparent total charge =  -0.109047E-06
  Summing up the Hartree potential.
  Time summed over all CPUs for potential: real work        0.977 s, elapsed        0.985 s
  | RMS charge density error from multipole expansion :   0.775699E-03

  Integrating Hamiltonian matrix: batch-based integration.
  Time summed over all CPUs for integration: real work        1.043 s, elapsed        1.060 s
  Evaluating the exchange matrix ... 

  Updating Kohn-Sham eigenvalues, eigenvectors, occupation numbers, and Fermi level.
  Solving generalized eigenproblem
  Updating Kohn-Sham eigenvalues and eigenfunctions.
  Solving real generalised eigenvalue problem by standard LAPACK (fast)
  Determining occupation numbers for Kohn-Sham eigenstates.
  | Chemical potential (Fermi level) in eV                 : -.55719123E+01
  | Error in electron count due to remaining E_F inaccuracy: 0.00000000E+00
  | Maximum occupation number of highest empty state:  0.00E+00

  Highest occupied state (VBM) at    -13.07474875 eV
  | Occupation number:      2.00000000

  Lowest unoccupied state (CBM) at     1.93092412 eV
  | Occupation number:      0.00000000

  Overall HOMO-LUMO gap:     15.00567287 eV.

  Total energy components:
  | Sum of eigenvalues            :          -0.96097637 Ha         -26.14949751 eV
  | XC energy correction          :           0.54586897 Ha          14.85385031 eV
  | XC potential correction       :           0.00000000 Ha           0.00000000 eV
  | Free-atom electrostatic energy:          -0.50175052 Ha         -13.65332643 eV
  | Hartree energy correction     :          -0.14629532 Ha          -3.98089807 eV
  | Entropy correction            :           0.00000000 Ha           0.00000000 eV
  | ---------------------------
  | Total energy                  :          -1.06315324 Ha         -28.92987170 eV
  | Total energy, T -> 0          :          -1.06315324 Ha         -28.92987170 eV  <-- do not rely on this value for anything but (periodic) metals
  | Electronic free energy        :          -1.06315324 Ha         -28.92987170 eV

  Derived energy quantities:
  | Kinetic energy                :           0.86237773 Ha          23.46649192 eV
  | Electrostatic energy          :          -1.37966201 Ha         -37.54251332 eV
  | Energy correction for multipole
  | error in Hartree potential    :          -0.00008991 Ha          -0.00244645 eV
  | Sum of eigenvalues per atom                           :         -13.07474875 eV
  | Total energy (T->0) per atom                          :         -14.46493585 eV  <-- do not rely on this value for anything but (periodic) metals
  | Electronic free energy per atom                       :         -14.46493585 eV

  Self-consistency convergence accuracy:
  | Change of charge density      : 0.3429E-01
  | Change of sum of eigenvalues  : 0.1714E+01 eV
  | Change of total energy        : 0.5613E-01 eV

  End self-consistency iteration #     2       :  max(cpu_time)    wall_clock(cpu1)
  | Time for this iteration                    :        0.724 s           0.724 s
  | Charge density update                      :        0.132 s           0.131 s
  | Density mixing                             :        0.004 s           0.004 s
  | Hartree multipole update                   :        0.060 s           0.061 s
  | Hartree multipole summation                :        0.248 s           0.248 s
  | Integration                                :        0.264 s           0.265 s
  | Fock matrix evaluation                     :        0.016 s           0.013 s
  | Solution of K.-S. eqns.                    :        0.004 s           0.001 s
  | Total energy evaluation                    :        0.004 s           0.000 s
------------------------------------------------------------

------------------------------------------------------------
          Begin self-consistency iteration #    3

  Date     :  20140812, Time     :  111717.732
------------------------------------------------------------
  Evaluating new KS density.
  Integration grid: deviation in total charge (<rho> - N_e) =   3.108624E-15
  Pulay mixing of updated and previous charge densities.

  Evaluating partitioned Hartree potential by multipole expansion.
  | Analytical far-field extrapolation by fixed multipoles:
  | Hartree multipole sum: apparent total charge =  -0.104240E-06
  Summing up the Hartree potential.
  Time summed over all CPUs for potential: real work        0.969 s, elapsed        0.972 s
  | RMS charge density error from multipole expansion :   0.717184E-03

  Integrating Hamiltonian matrix: batch-based integration.
  Time summed over all CPUs for integration: real work        1.064 s, elapsed        1.087 s
  Evaluating the exchange matrix ... 

  Updating Kohn-Sham eigenvalues, eigenvectors, occupation numbers, and Fermi level.
  Solving generalized eigenproblem
  Updating Kohn-Sham eigenvalues and eigenfunctions.
  Solving real generalised eigenvalue problem by standard LAPACK (fast)
  Determining occupation numbers for Kohn-Sham eigenstates.
  | Chemical potential (Fermi level) in eV                 : -.57078783E+01
  | Error in electron count due to remaining E_F inaccuracy: 0.00000000E+00
  | Maximum occupation number of highest empty state:  0.00E+00

  Highest occupied state (VBM) at    -13.26927000 eV
  | Occupation number:      2.00000000

  Lowest unoccupied state (CBM) at     1.85351342 eV
  | Occupation number:      0.00000000

  Overall HOMO-LUMO gap:     15.12278342 eV.

  Total energy components:
  | Sum of eigenvalues            :          -0.97527342 Ha         -26.53854000 eV
  | XC energy correction          :           0.53668339 Ha          14.60389798 eV
  | XC potential correction       :           0.00000000 Ha           0.00000000 eV
  | Free-atom electrostatic energy:          -0.50175052 Ha         -13.65332643 eV
  | Hartree energy correction     :          -0.12494714 Ha          -3.39998466 eV
  | Entropy correction            :           0.00000000 Ha           0.00000000 eV
  | ---------------------------
  | Total energy                  :          -1.06528770 Ha         -28.98795311 eV
  | Total energy, T -> 0          :          -1.06528770 Ha         -28.98795311 eV  <-- do not rely on this value for anything but (periodic) metals
  | Electronic free energy        :          -1.06528770 Ha         -28.98795311 eV

  Derived energy quantities:
  | Kinetic energy                :           0.83582544 Ha          22.74396735 eV
  | Electrostatic energy          :          -1.36442975 Ha         -37.12802248 eV
  | Energy correction for multipole
  | error in Hartree potential    :          -0.00007132 Ha          -0.00194068 eV
  | Sum of eigenvalues per atom                           :         -13.26927000 eV
  | Total energy (T->0) per atom                          :         -14.49397655 eV  <-- do not rely on this value for anything but (periodic) metals
  | Electronic free energy per atom                       :         -14.49397655 eV

  Self-consistency convergence accuracy:
  | Change of charge density      : 0.9914E-02
  | Change of sum of eigenvalues  : -.3890E+00 eV
  | Change of total energy        : -.5808E-01 eV

  End self-consistency iteration #     3       :  max(cpu_time)    wall_clock(cpu1)
  | Time for this iteration                    :        0.732 s           0.734 s
  | Charge density update                      :        0.136 s           0.135 s
  | Density mixing                             :        0.008 s           0.007 s
  | Hartree multipole update                   :        0.064 s           0.061 s
  | Hartree multipole summation                :        0.244 s           0.244 s
  | Integration                                :        0.272 s           0.272 s
  | Fock matrix evaluation                     :        0.012 s           0.012 s
  | Solution of K.-S. eqns.                    :        0.004 s           0.001 s
  | Total energy evaluation                    :        0.000 s           0.000 s
------------------------------------------------------------

------------------------------------------------------------
          Begin self-consistency iteration #    4

  Date     :  20140812, Time     :  111718.466
------------------------------------------------------------
  Evaluating new KS density.
  Integration grid: deviation in total charge (<rho> - N_e) =   8.881784E-16
  Pulay mixing of updated and previous charge densities.

  Evaluating partitioned Hartree potential by multipole expansion.
  | Analytical far-field extrapolation by fixed multipoles:
  | Hartree multipole sum: apparent total charge =  -0.110023E-06
  Summing up the Hartree potential.
  Time summed over all CPUs for potential: real work        0.985 s, elapsed        0.993 s
  | RMS charge density error from multipole expansion :   0.755878E-03

  Integrating Hamiltonian matrix: batch-based integration.
  Time summed over all CPUs for integration: real work        1.040 s, elapsed        1.047 s
  Evaluating the exchange matrix ... 

  Updating Kohn-Sham eigenvalues, eigenvectors, occupation numbers, and Fermi level.
  Solving generalized eigenproblem
  Updating Kohn-Sham eigenvalues and eigenfunctions.
  Solving real generalised eigenvalue problem by standard LAPACK (fast)
  Determining occupation numbers for Kohn-Sham eigenstates.
  | Chemical potential (Fermi level) in eV                 : -.57079644E+01
  | Error in electron count due to remaining E_F inaccuracy: 0.00000000E+00
  | Maximum occupation number of highest empty state:  0.00E+00

  Highest occupied state (VBM) at    -13.23811081 eV
  | Occupation number:      2.00000000

  Lowest unoccupied state (CBM) at     1.82218207 eV
  | Occupation number:      0.00000000

  Overall HOMO-LUMO gap:     15.06029288 eV.

  Total energy components:
  | Sum of eigenvalues            :          -0.97298326 Ha         -26.47622162 eV
  | XC energy correction          :           0.53365691 Ha          14.52154332 eV
  | XC potential correction       :           0.00000000 Ha           0.00000000 eV
  | Free-atom electrostatic energy:          -0.50175052 Ha         -13.65332643 eV
  | Hartree energy correction     :          -0.12139122 Ha          -3.30322304 eV
  | Entropy correction            :           0.00000000 Ha           0.00000000 eV
  | ---------------------------
  | Total energy                  :          -1.06246809 Ha         -28.91122777 eV
  | Total energy, T -> 0          :          -1.06246809 Ha         -28.91122777 eV  <-- do not rely on this value for anything but (periodic) metals
  | Electronic free energy        :          -1.06246809 Ha         -28.91122777 eV

  Derived energy quantities:
  | Kinetic energy                :           0.82623515 Ha          22.48300247 eV
  | Electrostatic energy          :          -1.35504634 Ha         -36.87268693 eV
  | Energy correction for multipole
  | error in Hartree potential    :          -0.00006329 Ha          -0.00172228 eV
  | Sum of eigenvalues per atom                           :         -13.23811081 eV
  | Total energy (T->0) per atom                          :         -14.45561389 eV  <-- do not rely on this value for anything but (periodic) metals
  | Electronic free energy per atom                       :         -14.45561389 eV

  Self-consistency convergence accuracy:
  | Change of charge density      : 0.3178E-02
  | Change of sum of eigenvalues  : 0.6232E-01 eV
  | Change of total energy        : 0.7673E-01 eV

  End self-consistency iteration #     4       :  max(cpu_time)    wall_clock(cpu1)
  | Time for this iteration                    :        0.732 s           0.731 s
  | Charge density update                      :        0.132 s           0.132 s
  | Density mixing                             :        0.012 s           0.012 s
  | Hartree multipole update                   :        0.064 s           0.061 s
  | Hartree multipole summation                :        0.252 s           0.250 s
  | Integration                                :        0.264 s           0.262 s
  | Fock matrix evaluation                     :        0.012 s           0.012 s
  | Solution of K.-S. eqns.                    :        0.004 s           0.001 s
  | Total energy evaluation                    :        0.000 s           0.001 s
------------------------------------------------------------

------------------------------------------------------------
          Begin self-consistency iteration #    5

  Date     :  20140812, Time     :  111719.197
------------------------------------------------------------
  Evaluating new KS density.
  Integration grid: deviation in total charge (<rho> - N_e) =   5.329071E-15
  Pulay mixing of updated and previous charge densities.

  Evaluating partitioned Hartree potential by multipole expansion.
  | Analytical far-field extrapolation by fixed multipoles:
  | Hartree multipole sum: apparent total charge =  -0.110432E-06
  Summing up the Hartree potential.
  Time summed over all CPUs for potential: real work        0.971 s, elapsed        0.974 s
  | RMS charge density error from multipole expansion :   0.755343E-03

  Integrating Hamiltonian matrix: batch-based integration.
  Time summed over all CPUs for integration: real work        1.055 s, elapsed        1.087 s
  Evaluating the exchange matrix ... 

  Updating Kohn-Sham eigenvalues, eigenvectors, occupation numbers, and Fermi level.
  Solving generalized eigenproblem
  Updating Kohn-Sham eigenvalues and eigenfunctions.
  Solving real generalised eigenvalue problem by standard LAPACK (fast)
  Determining occupation numbers for Kohn-Sham eigenstates.
  | Chemical potential (Fermi level) in eV                 : -.57129891E+01
  | Error in electron count due to remaining E_F inaccuracy: 0.00000000E+00
  | Maximum occupation number of highest empty state:  0.00E+00

  Highest occupied state (VBM) at    -13.23974916 eV
  | Occupation number:      2.00000000

  Lowest unoccupied state (CBM) at     1.81377102 eV
  | Occupation number:      0.00000000

  Overall HOMO-LUMO gap:     15.05352018 eV.

  Total energy components:
  | Sum of eigenvalues            :          -0.97310368 Ha         -26.47949831 eV
  | XC energy correction          :           0.53175602 Ha          14.46981740 eV
  | XC potential correction       :           0.00000000 Ha           0.00000000 eV
  | Free-atom electrostatic energy:          -0.50175052 Ha         -13.65332643 eV
  | Hartree energy correction     :          -0.12011431 Ha          -3.26847675 eV
  | Entropy correction            :           0.00000000 Ha           0.00000000 eV
  | ---------------------------
  | Total energy                  :          -1.06321250 Ha         -28.93148410 eV
  | Total energy, T -> 0          :          -1.06321250 Ha         -28.93148410 eV  <-- do not rely on this value for anything but (periodic) metals
  | Electronic free energy        :          -1.06321250 Ha         -28.93148410 eV

  Derived energy quantities:
  | Kinetic energy                :           0.82220787 Ha          22.37341445 eV
  | Electrostatic energy          :          -1.35366435 Ha         -36.83508114 eV
  | Energy correction for multipole
  | error in Hartree potential    :          -0.00006148 Ha          -0.00167289 eV
  | Sum of eigenvalues per atom                           :         -13.23974916 eV
  | Total energy (T->0) per atom                          :         -14.46574205 eV  <-- do not rely on this value for anything but (periodic) metals
  | Electronic free energy per atom                       :         -14.46574205 eV

  Self-consistency convergence accuracy:
  | Change of charge density      : 0.4647E-03
  | Change of sum of eigenvalues  : -.3277E-02 eV
  | Change of total energy        : -.2026E-01 eV

  End self-consistency iteration #     5       :  max(cpu_time)    wall_clock(cpu1)
  | Time for this iteration                    :        0.748 s           0.746 s
  | Charge density update                      :        0.132 s           0.131 s
  | Density mixing                             :        0.020 s           0.018 s
  | Hartree multipole update                   :        0.064 s           0.064 s
  | Hartree multipole summation                :        0.248 s           0.245 s
  | Integration                                :        0.272 s           0.272 s
  | Fock matrix evaluation                     :        0.012 s           0.012 s
  | Solution of K.-S. eqns.                    :        0.004 s           0.002 s
  | Total energy evaluation                    :        0.000 s           0.000 s
------------------------------------------------------------

------------------------------------------------------------
          Begin self-consistency iteration #    6

  Date     :  20140812, Time     :  111719.943
------------------------------------------------------------
  Evaluating new KS density.
  Integration grid: deviation in total charge (<rho> - N_e) =   7.993606E-15
  Pulay mixing of updated and previous charge densities.

  Evaluating partitioned Hartree potential by multipole expansion.
  | Analytical far-field extrapolation by fixed multipoles:
  | Hartree multipole sum: apparent total charge =  -0.110737E-06
  Summing up the Hartree potential.
  Time summed over all CPUs for potential: real work        0.985 s, elapsed        1.002 s
  | RMS charge density error from multipole expansion :   0.758302E-03

  Integrating Hamiltonian matrix: batch-based integration.
  Time summed over all CPUs for integration: real work        1.050 s, elapsed        1.084 s
  Evaluating the exchange matrix ... 

  Updating Kohn-Sham eigenvalues, eigenvectors, occupation numbers, and Fermi level.
  Solving generalized eigenproblem
  Updating Kohn-Sham eigenvalues and eigenfunctions.
  Solving real generalised eigenvalue problem by standard LAPACK (fast)
  Determining occupation numbers for Kohn-Sham eigenstates.
  | Chemical potential (Fermi level) in eV                 : -.57113235E+01
  | Error in electron count due to remaining E_F inaccuracy: 0.00000000E+00
  | Maximum occupation number of highest empty state:  0.00E+00

  Highest occupied state (VBM) at    -13.23660928 eV
  | Occupation number:      2.00000000

  Lowest unoccupied state (CBM) at     1.81396220 eV
  | Occupation number:      0.00000000

  Overall HOMO-LUMO gap:     15.05057148 eV.

  Total energy components:
  | Sum of eigenvalues            :          -0.97287290 Ha         -26.47321856 eV
  | XC energy correction          :           0.53153712 Ha          14.46386100 eV
  | XC potential correction       :           0.00000000 Ha           0.00000000 eV
  | Free-atom electrostatic energy:          -0.50175052 Ha         -13.65332643 eV
  | Hartree energy correction     :          -0.12027609 Ha          -3.27287900 eV
  | Entropy correction            :           0.00000000 Ha           0.00000000 eV
  | ---------------------------
  | Total energy                  :          -1.06336239 Ha         -28.93556299 eV
  | Total energy, T -> 0          :          -1.06336239 Ha         -28.93556299 eV  <-- do not rely on this value for anything but (periodic) metals
  | Electronic free energy        :          -1.06336239 Ha         -28.93556299 eV

  Derived energy quantities:
  | Kinetic energy                :           0.82161694 Ha          22.35733450 eV
  | Electrostatic energy          :          -1.35344221 Ha         -36.82903649 eV
  | Energy correction for multipole
  | error in Hartree potential    :          -0.00006147 Ha          -0.00167264 eV
  | Sum of eigenvalues per atom                           :         -13.23660928 eV
  | Total energy (T->0) per atom                          :         -14.46778150 eV  <-- do not rely on this value for anything but (periodic) metals
  | Electronic free energy per atom                       :         -14.46778150 eV

  Self-consistency convergence accuracy:
  | Change of charge density      : 0.1446E-03
  | Change of sum of eigenvalues  : 0.6280E-02 eV
  | Change of total energy        : -.4079E-02 eV

  End self-consistency iteration #     6       :  max(cpu_time)    wall_clock(cpu1)
  | Time for this iteration                    :        0.752 s           0.750 s
  | Charge density update                      :        0.132 s           0.132 s
  | Density mixing                             :        0.020 s           0.019 s
  | Hartree multipole update                   :        0.064 s           0.061 s
  | Hartree multipole summation                :        0.252 s           0.252 s
  | Integration                                :        0.272 s           0.271 s
  | Fock matrix evaluation                     :        0.016 s           0.013 s
  | Solution of K.-S. eqns.                    :        0.004 s           0.001 s
  | Total energy evaluation                    :        0.000 s           0.001 s
------------------------------------------------------------

------------------------------------------------------------
          Begin self-consistency iteration #    7

  Date     :  20140812, Time     :  111720.693
------------------------------------------------------------
  Evaluating new KS density.
  Integration grid: deviation in total charge (<rho> - N_e) =  -2.664535E-15
  Pulay mixing of updated and previous charge densities.

  Evaluating partitioned Hartree potential by multipole expansion.
  | Analytical far-field extrapolation by fixed multipoles:
  | Hartree multipole sum: apparent total charge =  -0.110717E-06
  Summing up the Hartree potential.
  Time summed over all CPUs for potential: real work        0.969 s, elapsed        0.976 s
  | RMS charge density error from multipole expansion :   0.757990E-03

  Integrating Hamiltonian matrix: batch-based integration.
  Time summed over all CPUs for integration: real work        1.042 s, elapsed        1.048 s
  Evaluating the exchange matrix ... 

  Updating Kohn-Sham eigenvalues, eigenvectors, occupation numbers, and Fermi level.
  Solving generalized eigenproblem
  Updating Kohn-Sham eigenvalues and eigenfunctions.
  Solving real generalised eigenvalue problem by standard LAPACK (fast)
  Determining occupation numbers for Kohn-Sham eigenstates.
  | Chemical potential (Fermi level) in eV                 : -.57117336E+01
  | Error in electron count due to remaining E_F inaccuracy: 0.00000000E+00
  | Maximum occupation number of highest empty state:  0.00E+00

  Highest occupied state (VBM) at    -13.23711596 eV
  | Occupation number:      2.00000000

  Lowest unoccupied state (CBM) at     1.81364884 eV
  | Occupation number:      0.00000000

  Overall HOMO-LUMO gap:     15.05076480 eV.

  Total energy components:
  | Sum of eigenvalues            :          -0.97291014 Ha         -26.47423193 eV
  | XC energy correction          :           0.53148231 Ha          14.46236949 eV
  | XC potential correction       :           0.00000000 Ha           0.00000000 eV
  | Free-atom electrostatic energy:          -0.50175052 Ha         -13.65332643 eV
  | Hartree energy correction     :          -0.12022099 Ha          -3.27137947 eV
  | Entropy correction            :           0.00000000 Ha           0.00000000 eV
  | ---------------------------
  | Total energy                  :          -1.06339934 Ha         -28.93656833 eV
  | Total energy, T -> 0          :          -1.06339934 Ha         -28.93656833 eV  <-- do not rely on this value for anything but (periodic) metals
  | Electronic free energy        :          -1.06339934 Ha         -28.93656833 eV

  Derived energy quantities:
  | Kinetic energy                :           0.82150492 Ha          22.35428636 eV
  | Electrostatic energy          :          -1.35342195 Ha         -36.82848520 eV
  | Energy correction for multipole
  | error in Hartree potential    :          -0.00006143 Ha          -0.00167149 eV
  | Sum of eigenvalues per atom                           :         -13.23711596 eV
  | Total energy (T->0) per atom                          :         -14.46828417 eV  <-- do not rely on this value for anything but (periodic) metals
  | Electronic free energy per atom                       :         -14.46828417 eV

  Self-consistency convergence accuracy:
  | Change of charge density      : 0.1211E-04
  | Change of sum of eigenvalues  : -.1013E-02 eV
  | Change of total energy        : -.1005E-02 eV

  End self-consistency iteration #     7       :  max(cpu_time)    wall_clock(cpu1)
  | Time for this iteration                    :        0.744 s           0.745 s
  | Charge density update                      :        0.136 s           0.135 s
  | Density mixing                             :        0.024 s           0.022 s
  | Hartree multipole update                   :        0.064 s           0.061 s
  | Hartree multipole summation                :        0.248 s           0.246 s
  | Integration                                :        0.264 s           0.262 s
  | Fock matrix evaluation                     :        0.016 s           0.017 s
  | Solution of K.-S. eqns.                    :        0.004 s           0.001 s
  | Total energy evaluation                    :        0.000 s           0.001 s
------------------------------------------------------------

------------------------------------------------------------
          Begin self-consistency iteration #    8

  Date     :  20140812, Time     :  111721.438
------------------------------------------------------------
  Evaluating new KS density.
  Integration grid: deviation in total charge (<rho> - N_e) =   5.773160E-15
  Pulay mixing of updated and previous charge densities.

  Evaluating partitioned Hartree potential by multipole expansion.
  | Analytical far-field extrapolation by fixed multipoles:
  | Hartree multipole sum: apparent total charge =  -0.110716E-06
  Summing up the Hartree potential.
  Time summed over all CPUs for potential: real work        0.984 s, elapsed        1.000 s
  | RMS charge density error from multipole expansion :   0.758001E-03

  Integrating Hamiltonian matrix: batch-based integration.
  Time summed over all CPUs for integration: real work        1.049 s, elapsed        1.076 s
  Evaluating the exchange matrix ... 

  Updating Kohn-Sham eigenvalues, eigenvectors, occupation numbers, and Fermi level.
  Solving generalized eigenproblem
  Updating Kohn-Sham eigenvalues and eigenfunctions.
  Solving real generalised eigenvalue problem by standard LAPACK (fast)
  Determining occupation numbers for Kohn-Sham eigenstates.
  | Chemical potential (Fermi level) in eV                 : -.57117004E+01
  | Error in electron count due to remaining E_F inaccuracy: 0.00000000E+00
  | Maximum occupation number of highest empty state:  0.00E+00

  Highest occupied state (VBM) at    -13.23707791 eV
  | Occupation number:      2.00000000

  Lowest unoccupied state (CBM) at     1.81367704 eV
  | Occupation number:      0.00000000

  Overall HOMO-LUMO gap:     15.05075495 eV.

  Total energy components:
  | Sum of eigenvalues            :          -0.97290734 Ha         -26.47415583 eV
  | XC energy correction          :           0.53148112 Ha          14.46233707 eV
  | XC potential correction       :           0.00000000 Ha           0.00000000 eV
  | Free-atom electrostatic energy:          -0.50175052 Ha         -13.65332643 eV
  | Hartree energy correction     :          -0.12022524 Ha          -3.27149531 eV
  | Entropy correction            :           0.00000000 Ha           0.00000000 eV
  | ---------------------------
  | Total energy                  :          -1.06340199 Ha         -28.93664049 eV
  | Total energy, T -> 0          :          -1.06340199 Ha         -28.93664049 eV  <-- do not rely on this value for anything but (periodic) metals
  | Electronic free energy        :          -1.06340199 Ha         -28.93664049 eV

  Derived energy quantities:
  | Kinetic energy                :           0.82150466 Ha          22.35427925 eV
  | Electrostatic energy          :          -1.35342554 Ha         -36.82858267 eV
  | Energy correction for multipole
  | error in Hartree potential    :          -0.00006143 Ha          -0.00167156 eV
  | Sum of eigenvalues per atom                           :         -13.23707791 eV
  | Total energy (T->0) per atom                          :         -14.46832025 eV  <-- do not rely on this value for anything but (periodic) metals
  | Electronic free energy per atom                       :         -14.46832025 eV

  Self-consistency convergence accuracy:
  | Change of charge density      : 0.8321E-06
  | Change of sum of eigenvalues  : 0.7610E-04 eV
  | Change of total energy        : -.7216E-04 eV

  End self-consistency iteration #     8       :  max(cpu_time)    wall_clock(cpu1)
  | Time for this iteration                    :        0.756 s           0.757 s
  | Charge density update                      :        0.136 s           0.133 s
  | Density mixing                             :        0.028 s           0.027 s
  | Hartree multipole update                   :        0.064 s           0.062 s
  | Hartree multipole summation                :        0.252 s           0.251 s
  | Integration                                :        0.272 s           0.269 s
  | Fock matrix evaluation                     :        0.012 s           0.012 s
  | Solution of K.-S. eqns.                    :        0.004 s           0.001 s
  | Total energy evaluation                    :        0.000 s           0.000 s
------------------------------------------------------------

------------------------------------------------------------
          Begin self-consistency iteration #    9

  Date     :  20140812, Time     :  111722.195
------------------------------------------------------------
  Evaluating new KS density.
  Integration grid: deviation in total charge (<rho> - N_e) =   1.776357E-15
  Pulay mixing of updated and previous charge densities.

  Evaluating partitioned Hartree potential by multipole expansion.
  | Analytical far-field extrapolation by fixed multipoles:
  | Hartree multipole sum: apparent total charge =  -0.110716E-06
  Summing up the Hartree potential.
  Time summed over all CPUs for potential: real work        0.981 s, elapsed        0.987 s
  | RMS charge density error from multipole expansion :   0.757996E-03

  Integrating Hamiltonian matrix: batch-based integration.
  Time summed over all CPUs for integration: real work        1.046 s, elapsed        1.080 s
  Evaluating the exchange matrix ... 

  Updating Kohn-Sham eigenvalues, eigenvectors, occupation numbers, and Fermi level.
  Solving generalized eigenproblem
  Updating Kohn-Sham eigenvalues and eigenfunctions.
  Solving real generalised eigenvalue problem by standard LAPACK (fast)
  Determining occupation numbers for Kohn-Sham eigenstates.
  | Chemical potential (Fermi level) in eV                 : -.57117077E+01
  | Error in electron count due to remaining E_F inaccuracy: 0.00000000E+00
  | Maximum occupation number of highest empty state:  0.00E+00

  Highest occupied state (VBM) at    -13.23708773 eV
  | Occupation number:      2.00000000

  Lowest unoccupied state (CBM) at     1.81367235 eV
  | Occupation number:      0.00000000

  Overall HOMO-LUMO gap:     15.05076007 eV.

  Total energy components:
  | Sum of eigenvalues            :          -0.97290807 Ha         -26.47417545 eV
  | XC energy correction          :           0.53148149 Ha          14.46234712 eV
  | XC potential correction       :           0.00000000 Ha           0.00000000 eV
  | Free-atom electrostatic energy:          -0.50175052 Ha         -13.65332643 eV
  | Hartree energy correction     :          -0.12022432 Ha          -3.27147032 eV
  | Entropy correction            :           0.00000000 Ha           0.00000000 eV
  | ---------------------------
  | Total energy                  :          -1.06340143 Ha         -28.93662509 eV
  | Total energy, T -> 0          :          -1.06340143 Ha         -28.93662509 eV  <-- do not rely on this value for anything but (periodic) metals
  | Electronic free energy        :          -1.06340143 Ha         -28.93662509 eV

  Derived energy quantities:
  | Kinetic energy                :           0.82150532 Ha          22.35429701 eV
  | Electrostatic energy          :          -1.35342525 Ha         -36.82857499 eV
  | Energy correction for multipole
  | error in Hartree potential    :          -0.00006143 Ha          -0.00167153 eV
  | Sum of eigenvalues per atom                           :         -13.23708773 eV
  | Total energy (T->0) per atom                          :         -14.46831254 eV  <-- do not rely on this value for anything but (periodic) metals
  | Electronic free energy per atom                       :         -14.46831254 eV

  Self-consistency convergence accuracy:
  | Change of charge density      : 0.2583E-06
  | Change of sum of eigenvalues  : -.1962E-04 eV
  | Change of total energy        : 0.1540E-04 eV

  End self-consistency iteration #     9       :  max(cpu_time)    wall_clock(cpu1)
  | Time for this iteration                    :        0.760 s           0.757 s
  | Charge density update                      :        0.136 s           0.133 s
  | Density mixing                             :        0.032 s           0.030 s
  | Hartree multipole update                   :        0.064 s           0.061 s
  | Hartree multipole summation                :        0.248 s           0.248 s
  | Integration                                :        0.272 s           0.270 s
  | Fock matrix evaluation                     :        0.012 s           0.013 s
  | Solution of K.-S. eqns.                    :        0.004 s           0.001 s
  | Total energy evaluation                    :        0.000 s           0.001 s
------------------------------------------------------------

------------------------------------------------------------
          Begin self-consistency iteration #   10

  Date     :  20140812, Time     :  111722.952
------------------------------------------------------------
  Evaluating new KS density.
  Integration grid: deviation in total charge (<rho> - N_e) =  -4.440892E-16
  Pulay mixing of updated and previous charge densities.

  Evaluating partitioned Hartree potential by multipole expansion.
  | Analytical far-field extrapolation by fixed multipoles:
  | Hartree multipole sum: apparent total charge =  -0.110716E-06
  Summing up the Hartree potential.
  Time summed over all CPUs for potential: real work        0.974 s, elapsed        0.979 s
  | RMS charge density error from multipole expansion :   0.757996E-03

  Integrating Hamiltonian matrix: batch-based integration.
  Time summed over all CPUs for integration: real work        1.079 s, elapsed        1.099 s
  Evaluating the exchange matrix ... 

  Updating Kohn-Sham eigenvalues, eigenvectors, occupation numbers, and Fermi level.
  Solving generalized eigenproblem
  Updating Kohn-Sham eigenvalues and eigenfunctions.
  Solving real generalised eigenvalue problem by standard LAPACK (fast)
  Determining occupation numbers for Kohn-Sham eigenstates.
  | Chemical potential (Fermi level) in eV                 : -.57117070E+01
  | Error in electron count due to remaining E_F inaccuracy: 0.00000000E+00
  | Maximum occupation number of highest empty state:  0.00E+00

  Highest occupied state (VBM) at    -13.23708803 eV
  | Occupation number:      2.00000000

  Lowest unoccupied state (CBM) at     1.81367412 eV
  | Occupation number:      0.00000000

  Overall HOMO-LUMO gap:     15.05076216 eV.

  Total energy components:
  | Sum of eigenvalues            :          -0.97290809 Ha         -26.47417606 eV
  | XC energy correction          :           0.53148162 Ha          14.46235080 eV
  | XC potential correction       :           0.00000000 Ha           0.00000000 eV
  | Free-atom electrostatic energy:          -0.50175052 Ha         -13.65332643 eV
  | Hartree energy correction     :          -0.12022459 Ha          -3.27147756 eV
  | Entropy correction            :           0.00000000 Ha           0.00000000 eV
  | ---------------------------
  | Total energy                  :          -1.06340158 Ha         -28.93662925 eV
  | Total energy, T -> 0          :          -1.06340158 Ha         -28.93662925 eV  <-- do not rely on this value for anything but (periodic) metals
  | Electronic free energy        :          -1.06340158 Ha         -28.93662925 eV

  Derived energy quantities:
  | Kinetic energy                :           0.82150561 Ha          22.35430508 eV
  | Electrostatic energy          :          -1.35342557 Ha         -36.82858352 eV
  | Energy correction for multipole
  | error in Hartree potential    :          -0.00006143 Ha          -0.00167154 eV
  | Sum of eigenvalues per atom                           :         -13.23708803 eV
  | Total energy (T->0) per atom                          :         -14.46831462 eV  <-- do not rely on this value for anything but (periodic) metals
  | Electronic free energy per atom                       :         -14.46831462 eV

  Self-consistency convergence accuracy:
  | Change of charge density      : 0.8140E-07
  | Change of sum of eigenvalues  : -.6079E-06 eV
  | Change of total energy        : -.4159E-05 eV

  End self-consistency iteration #    10       :  max(cpu_time)    wall_clock(cpu1)
  | Time for this iteration                    :        0.768 s           0.768 s
  | Charge density update                      :        0.132 s           0.132 s
  | Density mixing                             :        0.036 s           0.035 s
  | Hartree multipole update                   :        0.064 s           0.064 s
  | Hartree multipole summation                :        0.248 s           0.246 s
  | Integration                                :        0.276 s           0.275 s
  | Fock matrix evaluation                     :        0.016 s           0.014 s
  | Solution of K.-S. eqns.                    :        0.004 s           0.001 s
  | Total energy evaluation                    :        0.000 s           0.001 s
------------------------------------------------------------

------------------------------------------------------------
          Begin self-consistency iteration #   11

  Date     :  20140812, Time     :  111723.720
------------------------------------------------------------
  Evaluating new KS density.
  Integration grid: deviation in total charge (<rho> - N_e) =  -8.437695E-15
  Pulay mixing of updated and previous charge densities.

[...]

  Integrating Hamiltonian matrix: batch-based integration.
  Time summed over all CPUs for integration: real work        1.163 s, elapsed        1.220 s
  Evaluating the exchange matrix ... 

  Updating Kohn-Sham eigenvalues, eigenvectors, occupation numbers, and Fermi level.
  Solving generalized eigenproblem
  Updating Kohn-Sham eigenvalues and eigenfunctions.
  Solving real generalised eigenvalue problem by standard LAPACK (fast)
  Determining occupation numbers for Kohn-Sham eigenstates.
  | Chemical potential (Fermi level) in eV                 : -.57117068E+01
  | Error in electron count due to remaining E_F inaccuracy: 0.00000000E+00
  | Maximum occupation number of highest empty state:  0.00E+00

  Highest occupied state (VBM) at    -13.23708785 eV
  | Occupation number:      2.00000000

  Lowest unoccupied state (CBM) at     1.81367428 eV
  | Occupation number:      0.00000000

  Overall HOMO-LUMO gap:     15.05076212 eV.

  Total energy components:
  | Sum of eigenvalues            :          -0.97290807 Ha         -26.47417569 eV
  | XC energy correction          :           0.53148167 Ha          14.46235213 eV
  | XC potential correction       :           0.00000000 Ha           0.00000000 eV
  | Free-atom electrostatic energy:          -0.50175052 Ha         -13.65332643 eV
  | Hartree energy correction     :          -0.12022461 Ha          -3.27147822 eV
  | Entropy correction            :           0.00000000 Ha           0.00000000 eV
  | ---------------------------
  | Total energy                  :          -1.06340154 Ha         -28.93662821 eV
  | Total energy, T -> 0          :          -1.06340154 Ha         -28.93662821 eV  <-- do not rely on this value for anything but (periodic) metals
  | Electronic free energy        :          -1.06340154 Ha         -28.93662821 eV

  Derived energy quantities:
  | Kinetic energy                :           0.82150572 Ha          22.35430790 eV
  | Electrostatic energy          :          -1.35342558 Ha         -36.82858398 eV
  | Energy correction for multipole
  | error in Hartree potential    :          -0.00006143 Ha          -0.00167154 eV
  | Sum of eigenvalues per atom                           :         -13.23708785 eV
  | Total energy (T->0) per atom                          :         -14.46831410 eV  <-- do not rely on this value for anything but (periodic) metals
  | Electronic free energy per atom                       :         -14.46831410 eV

  Self-consistency convergence accuracy:
  | Change of charge density      : 0.5527E-09
  | Change of sum of eigenvalues  : 0.1146E-07 eV
  | Change of total energy        : 0.3987E-07 eV

  Writing Kohn-Sham eigenvalues.

  State    Occupation    Eigenvalue [Ha]    Eigenvalue [eV]
      1       2.00000          -0.486454          -13.23709
      2       0.00000           0.066651            1.81367
      3       0.00000           0.160580            4.36962
      4       0.00000           0.289805            7.88600
      5       0.00000           0.343193            9.33875
      6       0.00000           0.343193            9.33875
      7       0.00000           0.564982           15.37395
      8       0.00000           0.602337           16.39041
      9       0.00000           0.602337           16.39041
     10       0.00000           0.899130           24.46658
     11       0.00000           0.937412           25.50827
     12       0.00000           1.068437           29.07366
     13       0.00000           1.103721           30.03379
     14       0.00000           1.103721           30.03379
     15       0.00000           1.338467           36.42153
     16       0.00000           1.338467           36.42153
     17       0.00000           1.539520           41.89246
     18       0.00000           1.539520           41.89246
     19       0.00000           1.777240           48.36116
     20       0.00000           1.793339           48.79924
     21       0.00000           1.793339           48.79924
     22       0.00000           2.076998           56.51800
     23       0.00000           2.076998           56.51800
     24       0.00000           2.293892           62.41997
     25       0.00000           2.293892           62.41997
     26       0.00000           2.317320           63.05748
     27       0.00000           2.385089           64.90157
     28       0.00000           3.102040           84.41081
     29       0.00000           3.236000           88.05603
     30       0.00000           3.236000           88.05603
     31       0.00000           3.378186           91.92512
     32       0.00000           3.378186           91.92512
     33       0.00000           3.810092          103.67788
     34       0.00000           3.950121          107.48826
     35       0.00000           3.950121          107.48826
     36       0.00000           4.128807          112.35054
     37       0.00000           4.128807          112.35054
     38       0.00000           4.443518          120.91429
     39       0.00000           4.615026          125.58126
     40       0.00000           5.157615          140.34583
     41       0.00000           5.157615          140.34583
     42       0.00000           5.200055          141.50069
     43       0.00000           5.200055          141.50069
     44       0.00000           5.924486          161.21348
     45       0.00000           5.924486          161.21348
     46       0.00000           5.980373          162.73422
     47       0.00000           5.980373          162.73422
     48       0.00000           6.307944          171.64790
     49       0.00000           6.307944          171.64790
     50       0.00000           6.555478          178.38363
     51       0.00000           7.192841          195.72715
     52       0.00000           7.192841          195.72715
     53       0.00000           7.897744          214.90855
     54       0.00000           8.389379          228.28662
     55       0.00000           8.510309          231.57728
     56       0.00000           8.510309          231.57728
     57       0.00000           9.994103          271.95338
     58       0.00000          10.546343          286.98061
     59       0.00000          10.546343          286.98061
     60       0.00000          14.081000          383.16351
     61       0.00000          22.263762          605.82778
     62       0.00000          27.282142          742.38486

  Highest occupied state (VBM) at    -13.23708785 eV
  | Occupation number:      2.00000000

  Lowest unoccupied state (CBM) at     1.81367428 eV
  | Occupation number:      0.00000000

  Overall HOMO-LUMO gap:     15.05076212 eV.

  Self-consistency cycle converged.

  End self-consistency iteration #    12       :  max(cpu_time)    wall_clock(cpu1)
  | Time for this iteration                    :        0.948 s           0.946 s
  | Charge density update                      :        0.200 s           0.198 s
  | Density mixing                             :        0.048 s           0.048 s
  | Hartree multipole update                   :        0.088 s           0.090 s
  | Hartree multipole summation                :        0.284 s           0.283 s
  | Integration                                :        0.304 s           0.306 s
  | Fock matrix evaluation                     :        0.020 s           0.018 s
  | Solution of K.-S. eqns.                    :        0.000 s           0.002 s
  | Total energy evaluation                    :        0.004 s           0.000 s
------------------------------------------------------------

  Energy and forces in a compact form:
  | Total energy uncorrected      :         -0.289366282071946E+02 eV
  | Total energy corrected        :         -0.289366282071946E+02 eV  <-- do not rely on this value for anything but (periodic) metals
  | Electronic free energy        :         -0.289366282071946E+02 eV

  ------------------------------------ 
  Start decomposition of the XC Energy 
  ------------------------------------ 
  Hartree-Fock part   :          0.531481672 Ha             14.462352134 eV
  ------------------------------------ 
  X Energy            :          0.531481672 Ha             14.462352134 eV
  C Energy GGA        :          0.000000000 Ha              0.000000000 eV
  Total XC Energy     :          0.531481672 Ha             14.462352134 eV
  LDA X and C from self-consistent density 
  X Energy LDA        :         -0.464931712 Ha            -12.651435590 eV
  C Energy LDA        :         -0.086938253 Ha             -2.365710241 eV
  ------------------------------------ 
  End decomposition of the XC Energy 
  ------------------------------------ 
---------------------------------------------
---------------------------------------------
 | MP2 calculation starts ...
---------------------------------------------

  | Note : Resolution of identity applied 
  | Note : Non spin-polarized system 
---------------------------------------------
  | Homo level                                        1
  | Lumo level                                        2
  | Total Number of states                           62
  | Number of k-points                                1
  | Homo-Lumo Gap                            0.55310534 Ha         15.05076212 eV
---------------------------------------------
  The ovlp_3KS matrix takes another      0 MiB x      4 procs =       0.000 GiB.


---------------------------------------------
| Sum of correlation terms 
---------------------------------------------
  | Pair state     1                    :         -1.00030456 eV         -1.00030456 eV

---------------------------------------------
| Correlation energy spectrum 
---------------------------------------------
  |     2    :          0.06665130        -0.00768931
  |     3    :          0.16058043        -0.00122772
  |     4    :          0.28980531        -0.00774097
  |     5    :          0.34319263        -0.00199553
  |     6    :          0.34319263        -0.00199553
  |     7    :          0.56498223        -0.00084599
  |     8    :          0.60233659        -0.00028087
  |     9    :          0.60233659        -0.00028087
  |    10    :          0.89913019        -0.00044421
  |    11    :          0.93741177        -0.00181342
  |    12    :          1.06843743        -0.00309457
  |    13    :          1.10372132        -0.00021172
  |    14    :          1.10372133        -0.00021172
  |    15    :          1.33846668        -0.00084479
  |    16    :          1.33846668        -0.00084479
  |    17    :          1.53951972        -0.00006478
  |    18    :          1.53951974        -0.00006478
  |    19    :          1.77723987        -0.00125001
  |    20    :          1.79333896        -0.00075994
  |    21    :          1.79333896        -0.00075994
  |    22    :          2.07699815        -0.00032475
  |    23    :          2.07699815        -0.00032475
  |    24    :          2.29389174        -0.00018120
  |    25    :          2.29389174        -0.00018120
  |    26    :          2.31731988        -0.00011976
  |    27    :          2.38508882        -0.00006253
  |    28    :          3.10204025        -0.00056457
  |    29    :          3.23599958        -0.00004037
  |    30    :          3.23599958        -0.00004037
  |    31    :          3.37818615        -0.00007608
  |    32    :          3.37818619        -0.00007608
  |    33    :          3.81009201        -0.00044543
  |    34    :          3.95012106        -0.00002260
  |    35    :          3.95012106        -0.00002260
  |    36    :          4.12880657        -0.00016010
  |    37    :          4.12880657        -0.00016010
  |    38    :          4.44351839        -0.00018465
  |    39    :          4.61502635        -0.00026066
  |    40    :          5.15761458        -0.00003100
  |    41    :          5.15761463        -0.00003100
  |    42    :          5.20005489        -0.00007060
  |    43    :          5.20005489        -0.00007060
  |    44    :          5.92448638        -0.00004331
  |    45    :          5.92448642        -0.00004331
  |    46    :          5.98037254        -0.00004418
  |    47    :          5.98037254        -0.00004418
  |    48    :          6.30794449        -0.00007512
  |    49    :          6.30794449        -0.00007512
  |    50    :          6.55547790        -0.00007417
  |    51    :          7.19284065        -0.00003079
  |    52    :          7.19284065        -0.00003079
  |    53    :          7.89774412        -0.00001838
  |    54    :          8.38937918        -0.00005382
  |    55    :          8.51030873        -0.00008277
  |    56    :          8.51030873        -0.00008277
  |    57    :          9.99410305        -0.00005955
  |    58    :         10.54634345        -0.00003938
  |    59    :         10.54634345        -0.00003938
  |    60    :         14.08100035        -0.00002811
  |    61    :         22.26376174        -0.00001492
  |    62    :         27.28214197        -0.00000801
---------------------------------------------
 
 
 
          ---------------------------------------------
          | MP2 calculation comes to finish ...  
 
          ---------------------------------------------
          | Total time for calculating MP2 correction              :        0.004 s

          ---------------------------------------------

---------------------------------------------
  | HF Energy                      :         -1.06340154 Ha        -28.93662821 eV
  | MP2 correction                 :         -0.03676052 Ha         -1.00030456 eV
---------------------------------------------
  | Total Energy + MP2 correction  :         -1.10016206 Ha        -29.93693276 eV
---------------------------------------------

------------------------------------------------------------------------------
  Final output of selected total energy values:

  The following output summarizes some interesting total energy values
  at the end of a run (AFTER all relaxation, molecular dynamics, etc.).

  | Total energy of the DFT / Hartree-Fock s.c.f. calculation      :            -28.936628207 eV
  | Final zero-broadening corrected energy (caution - metals only) :            -28.936628207 eV
  | Total energy after the post-s.c.f. correlation calculation     :            -29.936932763 eV
  | For reference only, the value of 1 Hartree used in FHI-aims is :             27.211384500 eV

  Before relying on these values, please be sure to understand exactly which
  total energy value is referred to by a given number. Different objects may
  all carry the same name 'total energy'. Definitions:

  Total energy of the DFT / Hartree-Fock s.c.f. calculation:
  | Note that this energy does not include ANY quantities calculated after the
  | s.c.f. cycle, in particular not ANY RPA, MP2, etc. many-body perturbation terms.

  Final zero-broadening corrected energy:
  | For metallic systems only, a broadening of the occupation numbers at the Fermi
  | level can be extrapolated back to zero broadening by an electron-gas inspired
  | formula. For all systems that are not real metals, this value can be
  | meaningless and should be avoided.

  Total energy of the post-s.c.f. correlation calculation        :
  | The actual meaning of this energy depends on the setting for the 'total_energy_method'
  | keyword (MP2, RPA, rPT2, etc). If not sure, compare to the results listed above.

------------------------------------------------------------------------------

  Methods described in the following list of references were used in this FHI-aims run.
  If you publish the results, please make sure to cite these reference if they apply.
  FHI-aims is an academic code, and for our developers (often, Ph.D. students
  and postdocs), scientific credit in the community is essential.
  Thank you for helping us!

  For any use of FHI-aims, please cite:

    Volker Blum, Ralf Gehrke, Felix Hanke, Paula Havu, Ville Havu,
    Xinguo Ren, Karsten Reuter, and Matthias Scheffler,
    "Ab initio molecular simulations with numeric atom-centered orbitals"
    Computer Physics Communications 180, 2175-2196 (2009).
    http://dx.doi.org/10.1016/j.cpc.2009.06.022

  For Hartree-Fock, hybrid functionals, or many-body perturbation theory used in your run, please cite:

    Xinguo Ren, Patrick Rinke, Volker Blum, Juergen Wieferink, Alex Tkatchenko,
    Andrea Sanfilippo, Karsten Reuter, and Matthias Scheffler,
    "Resolution-of-identity approach to Hartree-Fock, hybrid density functionals,
     RPA, MP2, and GW with numeric atom-centered orbital basis functions"
    New Journal of Physics 14, 053020 (2012).
    http://dx.doi.org/10.1088/1367-2630/14/5/053020

  For the NAO-VCC-nZ basis sets used in this calculation, please cite:

    Igor Ying Zhang, Xinguo Ren, Patrick Rinke, Volker Blum, and Matthias Scheffler,
    "Numeric atom-centered-orbital basis sets with valence-correlation consistency from H to Ar"
    New Journal of Physics 15, 123033 (2013).
    http://dx.doi.org/10.1088/1367-2630/15/12/123033

  For the real-space grid partitioning and parallelization used in this calculation, please cite:

    Ville Havu, Volker Blum, Paula Havu, and Matthias Scheffler,
    "Efficient O(N) integration for all-electron electronic
    structure calculation using numerically tabulated basis functions"
    Journal of Computational Physics 228, 8367-8379 (2009).
    http://dx.doi.org/10.1016/j.jcp.2009.08.008

  Of course, there are many other important community references, e.g., those cited in the
  above references. Our list is limited to references that describe implementations in the FHI-aims
  code. The reason is purely practical (length of this list) - please credit others as well.

------------------------------------------------------------
          Leaving FHI-aims.
          Date     :  20140812, Time     :  111725.621

          Computational steps:
          | Number of self-consistency cycles          :           12

          Detailed time accounting                     :  max(cpu_time)    wall_clock(cpu1)
          | Total time                                 :       34.482 s          34.536 s
          | Preparation time                           :        0.152 s           0.174 s
          | Grid partitioning                          :        0.248 s           0.250 s
          | Preloading free-atom quantities on grid    :        0.116 s           0.113 s
          | Free-atom superposition energy             :        0.052 s           0.049 s
          | Total time for integrations                :        4.020 s           4.009 s
          | Product basis setup: Total time            :        0.000 s           0.000 s
          | Product basis: | 3-center integrations     :       23.341 s          23.311 s
          | Product basis: | 2-center integrations     :        0.252 s           0.251 s
          | Product basis: | 2-center linear algebra   :        0.072 s           0.072 s
          | Product basis: | 3-center x 2-center       :        0.036 s           0.035 s
          | Total time evaluating exchange matrix      :        0.176 s           0.167 s
          | Transforming ovlp_3fn to ovlp_3KS          :        0.016 s           0.015 s
          | Total time for solution of K.-S. equations :        0.048 s           0.021 s
          | Total time for density update              :        1.684 s           1.670 s
          | Total time for mixing                      :        0.276 s           0.266 s
          | Total time for Hartree multipole update    :        0.792 s           0.773 s
          | Total time for Hartree multipole sum       :        3.024 s           3.013 s
          | Total time for total energy evaluation     :        0.012 s           0.009 s

          Have a nice day.
------------------------------------------------------------
