  MPI-parallelism will be employed.
------------------------------------------------------------
          Invoking FHI-aims ...
          Version 072414
          Compiled on 2014/08/06 at 00:00:04 on host theobook58.

          When using FHI-aims, please cite the following reference:

          Volker Blum, Ralf Gehrke, Felix Hanke, Paula Havu,
          Ville Havu, Xinguo Ren, Karsten Reuter, and Matthias Scheffler,
          'Ab Initio Molecular Simulations with Numeric Atom-Centered Orbitals: FHI-aims',
          Computer Physics Communications 180, 2175-2196 (2009)

          For any questions about FHI-aims, please visit the aimsclub website
          with its forums and wiki. Contributions to both the forums and the
          wiki are warmly encouraged - they are for you, and everyone is welcome there.

------------------------------------------------------------

  Date     :  20140812, Time     :  111617.504
  Time zero on CPU 1             :   0.160000000000000E-01  s.
  Internal wall clock time zero  :           177074177.504  s.

  Using        4 parallel tasks.
  Task        0 on host theobook58 reporting.
  Task        1 on host theobook58 reporting.
  Task        2 on host theobook58 reporting.
  Task        3 on host theobook58 reporting.

  Performing system and environment tests:
  | Environment variable OMP_NUM_THREADS correctly set to 1.
  | Stacksize not measured: no C compiler
  | Checking for scalapack...
  | No scalapack compiled in.

  Obtaining array dimensions for all initial allocations:
  
  -----------------------------------------------------------------------
  Parsing control.in (first pass over file, find array dimensions only).
  The contents of control.in will be repeated verbatim below
  unless switched off by setting 'verbatim_writeout .false.' .
  in the first line of control.in .
  -----------------------------------------------------------------------
  
  xc                      hf
  total_energy_method     mp2
  relativistic            none
  occupation_type         integer 0.0001
  mixer                   pulay
  n_max_pulay             10
  charge_mix_param        0.6
  sc_iter_limit           600
  sc_accuracy_rho         1E-6
  sc_accuracy_eev         1E-4
  sc_accuracy_etot        1E-6
  override_illconditioning .true.
  charge                  0
  ################################################################################
  #
  #  FHI-aims code project
  # Igor Ying Zhang and Xinguo Ren, Fritz Haber Institute Berlin, 2012
  #
  #  Suggested "NAO-VCC-4Z" defaults for H atom (to be pasted into control.in file)
  #
  #  Please cite:
  #
  #  Igor Ying Zhang, Xinguo Ren, Patrick Rinke, Volker Blum, and Matthias Scheffler,
  #  "Numeric atom-centered-orbital basis sets with valence-correlation consistency from H to Ar"
  #  New Journal of Physics 15, 123033 (2013).
  #  http://dx.doi.org/10.1088/1367-2630/15/12/123033
  #
  ################################################################################
    species        H
  #     set basis set reference for FHI-aims output
      cite_reference NAO-VCC-2013
  #     global species definitions
      nucleus             1
      mass                1.00794
  #
      l_hartree           6
  #
      cut_pot             4.0  2.0  1.0
      basis_dep_cutoff    0e-4
  #
      radial_base         24 7.0
  radial_multiplier               6
      angular_grids       specified
        division   0.1930   50
        division   0.3175  110
        division   0.4293  194
        division   0.5066  302
        division   0.5626  434
        division   0.5922  590
  #      division   0.6227  974
  #      division   0.6868 1202
        outer_grid  770
  #      outer_grid  434
  ################################################################################
  #
  #  Definition of "minimal" basis
  #
  ################################################################################
  #     valence basis states
      valence      1  s   1.
  #     ion occupancy
      ion_occ      1  s   0.5
  ################################################################################
  
  
   basis_acc              1e-04
  #============================================
  # Optimization in      H for       NAO-VCC-4Z
  #============================================
  # (sp) correlation set
   hydro     1     s      1.15655525
   hydro     1     s      1.68684502
   hydro     1     s      2.46027686
   hydro     2     p      2.92145897
   hydro     2     p      4.14501835
   hydro     2     p      5.88102632
  # polarization set
   hydro     3     d      6.41446874
   hydro     3     d      7.67536483
   hydro     4     f     10.80870049
  # (sp) enhanced minimal set
   hydro     1     s      3.58833335
  
  -----------------------------------------------------------------------
  Completed first pass over input file control.in .
  -----------------------------------------------------------------------
  
  
  -----------------------------------------------------------------------
  Parsing geometry.in (first pass over file, find array dimensions only).
  The contents of geometry.in will be repeated verbatim below
  unless switched off by setting 'verbatim_writeout .false.' .
  in the first line of geometry.in .
  -----------------------------------------------------------------------
  
  atom             0.0             0.0             0.0    H
  atom             0.0             0.0             1.0    H
  
  -----------------------------------------------------------------------
  Completed first pass over input file geometry.in .
  -----------------------------------------------------------------------
  

  Basic array size parameters:
  | Number of species                 :        1
  | Number of atoms                   :        2
  | Max. basis fn. angular momentum   :        3
  | Max. atomic/ionic basis occupied n:        1
  | Max. number of basis fn. types    :        2
  | Max. radial fns per species/type  :       10
  | Max. logarithmic grid size        :     1131
  | Max. radial integration grid size :      149
  | Max. angular integration grid size:      770
  | Max. angular grid division number :        8
  | Radial grid for Hartree potential :     1131
  | Number of spin channels           :        1

------------------------------------------------------------
          Reading file control.in.
------------------------------------------------------------
 
  Hartree-Fock calculation starts ...... 
  Attention: this version of Hartree-Fock employs an auxiliary basis. 
 
  MP2 correlation energy calculation will be started after the DFT/HF calculation.
  Non-relativistic treatment of kinetic energy.
  Occupation type: Integer occupation.
  Using pulay charge density mixing.
  Pulay mixing - number of memorized iterations:   10
  Charge density mixing - mixing parameter:     0.6000
  Maximum number of s.-c. iterations  :   600
  Convergence accuracy of self-consistent charge density: 0.1000E-05
  Convergence accuracy of sum of eigenvalues: 0.1000E-03
  Convergence accuracy of total energy: 0.1000E-05
  override_illconditioning: Explicitly overriding any built-in checks for an ill-conditioned overlap matrix.
  *** WARNING: If you use this flag, you should really know what you are doing.
  *** DO NOT keep this flag set by default in all your control.in files.
  Charge =   0.000000E+00: Neutral system requested explicitly.
 
  Reading configuration options for species H                   .
  | Found nuclear charge :   1.0000
  | Found atomic mass :    1.00794000000000      amu
  | Found l_max for Hartree potential  :   6
  | Found cutoff potl. onset [A], width [A], scale factor :    4.00000    2.00000    1.00000
  | Threshold for basis-dependent cutoff potential is   0.000000E+00
  | Found data for basic radial integration grid :    24 points, outermost radius =    7.000 A
  | Found multiplier for basic radial grid :   6
  | Found angular grid specification: user-specified.
  | Specified grid contains     7 separate shells.
  | Check grid settings after all constraints further below.
  | Found free-atom valence shell :  1 s   1.000
  | No ionic wave fns used. Skipping ion_occ.
  | Found basis singularity cutoff : 0.1000E-03
  | Found hydrogenic basis function :  1 s   1.157
  | Found hydrogenic basis function :  1 s   1.687
  | Found hydrogenic basis function :  1 s   2.460
  | Found hydrogenic basis function :  2 p   2.921
  | Found hydrogenic basis function :  2 p   4.145
  | Found hydrogenic basis function :  2 p   5.881
  | Found hydrogenic basis function :  3 d   6.414
  | Found hydrogenic basis function :  3 d   7.675
  | Found hydrogenic basis function :  4 f  10.809
  | Found hydrogenic basis function :  1 s   3.588
  Species H                   : Missing cutoff potential type.
  Defaulting to exp(1/x)/(1-x)^2 type cutoff potential.
  Species H : No 'logarithmic' tag. Using default grid for free atom:
  | Default logarithmic grid data [bohr] : 0.1000E-03 0.1000E+03 0.1012E+01
  Species H                   : Using default innermost maximum threshold i_radial=  2 for radial functions.
  Species H                   : Default cutoff onset for free atom density etc. is infinite
  since the product basis is used (hybrid functionals, Hartree-Fock, GW etc.).
  Species H                   : Basic radial grid will be enhanced according to radial_multiplier =   6, to contain   149 grid points.
 
  Finished reading input file 'control.in'. Consistency checks are next.
 
  Species H: Using default value for prodbas_acc =   1.000000E-02.
  Species H: Using default value max_l_prodbas =     5.
  Target number of points in a grid batch is not set. Defaulting to  100
  Method for grid partitioning is not set. Defaulting to parallel hash+maxmin partitioning.
  Batch size limit is not set. Defaulting to    200
  By default, will store active basis functions for each batch.
  If in need of memory, prune_basis_once .false. can be used to disable this option.
  communication_type for Hartree potential was not specified.
  Defaulting to calc_hartree .
  Pulay mixer: Number of initial linear mixing iterations not set.
  Defaulting to    0 iterations.
  Work space size for distributed Hartree potential not set.
  Defaulting to   0.200000E+03 MB.
  Algorithm-dependent basis array size parameters:
  | n_max_pulay                         :       10
  Calculation of forces was not defined in control.in. No forces will be calculated.
  Geometry relaxation not requested: no relaxation will be performed.
  No accuracy limit for integral partition fn. given. Defaulting to 0.1000E-14.
  No threshold value for u(r) in integrations given. Defaulting to 0.1000E-05.
  No accuracy for occupation numbers given. Defaulting to 0.1000E-07.
  No threshold value for occupation numbers given. Defaulting to 0.0000E+00.
  No accuracy for fermi level given. Defaulting to 0.1000E-19.
  Maximum # of iterations to find E_F not set. Defaulting to  200.
  Preferred method for the eigenvalue solver ('KS_method') not specified in 'control.in'.
  Calling blacs routine to test compilation state
  The best choice would be 'elpa', but your version of FHI-aims is compiled without scalapack support.
  Defaulting to 'lapack_fast' instead (serial solution, time will not improve with more CPUs).
  Will not use alltoall communication since running on < 1024 CPUs.
  Threshold for basis singularities not set.
  Default threshold for basis singularities: 0.1000E-04
  partition_type (choice of integration weights) for integrals was not specified.
  | Using a version of the partition function of Stratmann and coworkers ('stratmann_smoother').
  | At each grid point, the set of atoms used to build the partition table is smoothly restricted to
  | only those atoms whose free-atom density would be non-zero at that grid point.
  Partitioning for Hartree potential was not defined. Using partition_type for integrals.
  | Adjusted default value of keyword multip_moments_threshold to:       0.10000000E-11
  | This value may affect high angular momentum components of the Hartree potential in periodic systems.
  Spin handling was not defined in control.in. Defaulting to unpolarized case.
  Threshold for auxiliary basis singularities not set.
  Default threshold for auxiliary basis singularities: 0.1000E-04
  No q(lm)/r^(l+1) cutoff set for long-range Hartree potential.
  | Using default value of  0.100000E-09 .
  | Verify using the multipole_threshold keyword.
  Defaulting to new monopole extrapolation.
  Density update method: automatic selection selected.
  Default to 1D ("use_logsbt") integrations for auxiliary 2-center integrals.
  Default onset of logarithmic r-grid for SBT is-38.000000000000
  Default onset of logarithmic k-grid for SBT is-25.000000000000
  Default range of logarithmic r- and k-grid for SBT is 45.000000000000
  Default number of logarithmic r- and k-grid for SBT is  4096
------------------------------------------------------------


------------------------------------------------------------
          Reading geometry description geometry.in.
------------------------------------------------------------
  Input structure read successfully.
  The structure contains        2 atoms,  and a total of          2.000 electrons.

  Input geometry:
  | No unit cell requested.
  | Atomic structure:
  |       Atom                x [A]            y [A]            z [A]
  |    1: Species H              0.000000         0.000000         0.000000
  |    2: Species H              0.000000         0.000000         1.000000
  |

  | The smallest distance between any two atoms is         1.00000000 AA.
  |
  | The first atom of this pair is atom number                      1 .
  | The second atom of this pair is atom number                     2 .

  Number of empty states per atom not set in control.in .
  | Since you are using a method that relies on the unoccupied spectrum
  | (MP2,GW,RPA et al.), will use the full Hamiltonian size (see below)
  | as the max. possible number of states (occupied plus empty).

  Structure-dependent array size parameters: 
  | Maximum number of distinct radial functions  :       11
  | Maximum number of basis functions            :       62
  | Number of Kohn-Sham states (occupied + empty):       62
------------------------------------------------------------

------------------------------------------------------------
          Preparing all fixed parts of the calculation.
------------------------------------------------------------
  Determining machine precision:
    2.225073858507201E-308
  Setting up grids for atomic and cluster calculations.

  Creating wave function, potential, and density for free atoms.

  Species: H

  List of occupied orbitals and eigenvalues:
    n    l              occ      energy [Ha]    energy [eV]
    1    0           1.0000        -0.233457        -6.3527

  Creating fixed part of basis set: Ionic, confined, hydrogenic.
 
  H                    hydrogenic:
 
  List of hydrogenic basis orbitals: 
    n    l      effective z      eigenvalue [eV]  inner max. [A]     outer max. [A]     outer radius [A]   
    1    0         1.156555       -18.1992           0.460320           0.460320           5.243229
    1    0         1.686845       -38.7143           0.315118           0.315118           4.932336
    1    0         2.460277       -82.3547           0.215718           0.215718           3.815562
    2    1         2.921459       -29.0309           0.723605           0.723605           5.243229
    2    1         4.145018       -58.4405           0.507614           0.507614           4.813203
    2    1         5.881026      -117.6432           0.360475           0.360475           3.678162
    3    2         6.414469       -62.2013           0.741515           0.741515           4.993004
    3    2         7.675365       -89.0587           0.617279           0.617279           4.583499
    4    3        10.808700       -99.3454           0.778676           0.778676           4.696947
    1    0         3.588333      -175.1887           0.147673           0.147673           2.644120
 

  Adding cutoff potential to free-atom effective potential.
  Creating atomic-like basis functions for current effective potential.

  Species H                   :

  List of atomic basis orbitals and eigenvalues:
    n    l      energy [Ha]    energy [eV]    outer radius [A]
    1    0        -0.233418        -6.3516       5.373006

  Assembling full basis from fixed parts.
  | Species H :   atomic orbital   1 s accepted.
  | Species H :    hydro orbital   1 s accepted.
  | Species H :    hydro orbital   1 s accepted.
  | Species H :    hydro orbital   1 s accepted.
  | Species H :    hydro orbital   1 s accepted.
  | Species H :    hydro orbital   2 p accepted.
  | Species H :    hydro orbital   2 p accepted.
  | Species H :    hydro orbital   2 p accepted.
  | Species H :    hydro orbital   3 d accepted.
  | Species H :    hydro orbital   3 d accepted.
  | Species H :    hydro orbital   4 f accepted.
 
  Basis size parameters after reduction:
  | Total number of radial functions:       11
  | Total number of basis functions :       62
 
  Testing on-site integration grid accuracy.
  |  Species  Function  <phi|h_atom|phi> (log., in eV)  <phi|h_atom|phi> (rad., in eV)
           1        1                 -6.3519216712                 -6.3519215989
           1        2                  8.4716038567                  8.4716058028
           1        3                 58.3749927434                 58.3750109815
           1        4                178.9024737125                178.9026031671
           1        5                456.3642310330                456.3649721232
           1        6                 16.2415699263                 16.2415699338
           1        7                 68.2932618880                 68.2932619123
           1        8                188.3801588017                188.3801587562
           1        9                 49.9849006789                 49.9849006869
           1       10                114.3821731125                114.3821730675
           1       11                 88.0899419283                 88.0899419237

  Preparing densities etc. for the partition functions (integrals / Hartree potential).

  Preparations completed.
  max(cpu_time)          :      0.204 s.
  Wall clock time (cpu1) :      0.215 s.
------------------------------------------------------------

------------------------------------------------------------
          Begin self-consistency loop: Initialization.

          Date     :  20140812, Time     :  111617.723
------------------------------------------------------------

  Initializing index lists of integration centers etc. from given atomic structure:
  | Number of centers in hartree potential         :         2
  | Number of centers in hartree multipole         :         2
  | Number of centers in electron density summation:         2
  | Number of centers in basis integrals           :         2
  | Number of centers in integrals                 :         2
  Partitioning the integration grid into batches with parallel hashing+maxmin method.
  | Number of batches:     1965
  | Maximal batch size:     150
  | Minimal batch size:      65
  | Average batch size:      73.488
  | Standard deviation of batch sizes:      14.658

  Integration load balanced across     4 MPI tasks.
  Work distribution over tasks is as follows:
  Task     0 has      36065 integration points.
  Task     1 has      36169 integration points.
  Task     2 has      36032 integration points.
  Task     3 has      36138 integration points.
  Initializing partition tables, free-atom densities, potentials, etc. across the integration grid (initialize_grid_storage).
  | Original list of interatomic distances with           2 x          2 entries is created.
  | Net number of integration points:   144404
  | of which are non-zero points    :   131970
  Obtaining max. number of non-zero basis functions in each batch (get_n_compute_maxes).
  | Maximal number of non-zero basis functions:       62 in task     0
  | Maximal number of non-zero basis functions:       62 in task     1
  | Maximal number of non-zero basis functions:       62 in task     2
  | Maximal number of non-zero basis functions:       62 in task     3
  Selecting the method for density update.
  Loop over occupied states selected for charge density update.
  Integrating Hamiltonian matrix: batch-based integration.
  Time summed over all CPUs for integration: real work        1.151 s, elapsed        1.167 s
  Integrating overlap matrix.
  Time summed over all CPUs for integration: real work        0.726 s, elapsed        0.749 s

  Updating Kohn-Sham eigenvalues, eigenvectors, occupation numbers, and Fermi level.
  Solving generalized eigenproblem
  Updating Kohn-Sham eigenvalues and eigenfunctions.
  Transforming overlap matrix and checking for singularities.
  Overlap matrix is nonsingular:
  | Lowest eigenvalue:  0.563091E-04
  Solving real generalised eigenvalue problem by standard LAPACK (fast)
  Determining occupation numbers for Kohn-Sham eigenstates.
  | Chemical potential (Fermi level) in eV                 : -.65615608E+01
  | Error in electron count due to remaining E_F inaccuracy: 0.00000000E+00
  | Maximum occupation number of highest empty state:  0.00E+00

  Writing Kohn-Sham eigenvalues.

  State    Occupation    Eigenvalue [Ha]    Eigenvalue [eV]
      1       2.00000          -0.416635          -11.33722
      2       0.00000          -0.065631           -1.78590
      3       0.00000           0.051994            1.41482
      4       0.00000           0.152889            4.16032
      5       0.00000           0.152889            4.16032
      6       0.00000           0.167353            4.55390
      7       0.00000           0.404576           11.00906
      8       0.00000           0.428475           11.65939
      9       0.00000           0.428475           11.65939
     10       0.00000           0.649223           17.66626
     11       0.00000           0.668337           18.18637
     12       0.00000           0.834577           22.71001
     13       0.00000           0.856397           23.30374
     14       0.00000           0.856397           23.30374
     15       0.00000           1.125543           30.62758
     16       0.00000           1.125543           30.62758
     17       0.00000           1.367926           37.22316
     18       0.00000           1.367926           37.22316
     19       0.00000           1.491337           40.58135
     20       0.00000           1.491337           40.58135
     21       0.00000           1.550313           42.18616
     22       0.00000           1.669695           45.43470
     23       0.00000           1.669695           45.43470
     24       0.00000           1.961086           53.36387
     25       0.00000           2.160174           58.78133
     26       0.00000           2.276264           61.94030
     27       0.00000           2.276264           61.94030
     28       0.00000           2.841015           77.30794
     29       0.00000           2.841015           77.30794
     30       0.00000           2.916252           79.35526
     31       0.00000           3.130409           85.18276
     32       0.00000           3.238858           88.13382
     33       0.00000           3.238859           88.13382
     34       0.00000           3.821361          103.98452
     35       0.00000           3.821361          103.98452
     36       0.00000           4.159848          113.19521
     37       0.00000           4.159848          113.19521
     38       0.00000           4.669594          127.06612
     39       0.00000           4.695758          127.77808
     40       0.00000           4.730388          128.72041
     41       0.00000           4.730388          128.72041
     42       0.00000           5.466203          148.74296
     43       0.00000           5.466203          148.74296
     44       0.00000           5.631854          153.25053
     45       0.00000           5.631854          153.25054
     46       0.00000           5.651547          153.78642
     47       0.00000           5.651547          153.78642
     48       0.00000           5.900236          160.55360
     49       0.00000           5.900236          160.55360
     50       0.00000           6.293332          171.25028
     51       0.00000           6.816212          185.47855
     52       0.00000           7.342496          199.79947
     53       0.00000           7.342496          199.79947
     54       0.00000           8.011646          218.00797
     55       0.00000           8.011646          218.00797
     56       0.00000           8.902655          242.25357
     57       0.00000          11.339592          308.56600
     58       0.00000          12.042872          327.70323
     59       0.00000          12.042872          327.70323
     60       0.00000          15.911590          432.97639
     61       0.00000          22.662379          616.67470
     62       0.00000          30.428993          828.01502

  Highest occupied state (VBM) at    -11.33722093 eV
  | Occupation number:      2.00000000

  Lowest unoccupied state (CBM) at    -1.78590073 eV
  | Occupation number:      0.00000000

  Overall HOMO-LUMO gap:      9.55132020 eV.
  Calculating total energy contributions from superposition of free atom densities.

  Total energy components:
  | Sum of eigenvalues            :          -0.83327042 Ha         -22.67444186 eV
  | XC energy correction          :          -0.51367032 Ha         -13.97768069 eV
  | XC potential correction       :           0.66986856 Ha          18.22805093 eV
  | Free-atom electrostatic energy:          -0.45237908 Ha         -12.30986111 eV
  | Hartree energy correction     :           0.00000000 Ha           0.00000000 eV
  | Entropy correction            :           0.00000000 Ha           0.00000000 eV
  | ---------------------------
  | Total energy                  :          -1.12945127 Ha         -30.73393272 eV
  | Total energy, T -> 0          :          -1.12945127 Ha         -30.73393272 eV  <-- do not rely on this value for anything but (periodic) metals
  | Electronic free energy        :          -1.12945127 Ha         -30.73393272 eV

  Derived energy quantities:
  | Kinetic energy                :           0.67475610 Ha          18.36104759 eV
  | Electrostatic energy          :          -1.29053704 Ha         -35.11729962 eV
  | Energy correction for multipole
  | error in Hartree potential    :           0.00000000 Ha           0.00000000 eV
  | Sum of eigenvalues per atom                           :         -11.33722093 eV
  | Total energy (T->0) per atom                          :         -15.36696636 eV  <-- do not rely on this value for anything but (periodic) metals
  | Electronic free energy per atom                       :         -15.36696636 eV
 
 --------------------------------------------
  Constructing auxiliary basis (full product) ...
 
  Product basis:
  | charge radius: extent of product basis function
  | field radius: extent of its Coulomb potential
  | Species   l  charge radius    field radius  multipol momen
  |    H      5     4.813203 A      4.813203 A  2.676041E-15 a.u.
  |    H      4     4.932336 A      4.932336 A  2.417679E-16 a.u.
  |    H      3     5.054418 A      5.054418 A  ************ a.u.
  |    H      4     5.054418 A      5.054418 A  ************ a.u.
  |    H      3     5.116587 A      5.116587 A  1.642688E-15 a.u.
  |    H      2     5.179521 A      5.179521 A  6.126280E-16 a.u.
  |    H      3     5.179521 A      5.179521 A  ************ a.u.
  |    H      2     5.243229 A      5.243229 A  1.485543E-16 a.u.
  |    H      2     5.243229 A      5.243229 A  1.683301E-16 a.u.
  |    H      2     5.243229 A      5.243229 A  ************ a.u.
  |    H      3     5.243229 A      5.243229 A  ************ a.u.
  |    H      1     5.307721 A      5.307721 A  2.416866E-16 a.u.
  |    H      1     5.307721 A      5.307721 A  1.291012E-16 a.u.
  |    H      2     5.307721 A      5.307721 A  7.871382E-16 a.u.
  |    H      0     5.373006 A      5.373006 A  9.519909E-17 a.u.
  |    H      1     5.373006 A      5.373006 A  2.334090E-16 a.u.
  |    H      1     5.373006 A      5.373006 A  ************ a.u.
  |    H      1     5.373006 A      5.373006 A  ************ a.u.
  |    H      1     5.373006 A      5.373006 A  1.823473E-16 a.u.
  |    H      0     5.373006 A      5.439094 A  ************ a.u.
  |    H      0     5.439094 A      5.439094 A  ************ a.u.
  |    H      0     5.439094 A      5.505995 A  9.305319E-17 a.u.
  |    H      0     5.439094 A      5.505995 A  4.082184E-17 a.u.
  |    H      0     5.439094 A      5.505995 A  3.169850E-16 a.u.
  |    H      0     5.439094 A      5.505995 A  2.711689E-16 a.u.
  |    H      5     4.872405 A  1.325110E+02 A           19.619780 a.u.
  |    H      4     5.054418 A  3.771796E+02 A           14.639479 a.u.
  |    H      3     5.243229 A  1.836978E+03 A           11.555842 a.u.
  |    H      2     5.307721 A  2.095310E+04 A            4.940052 a.u.
  |    H      1     5.373006 A  2.512347E+06 A            1.793689 a.u.
  |    H      0     5.439094 A  4.604132E+12 A            0.692368 a.u.

  | Shrink_full_auxil_basis : there are       31  radial auxiliary wave functions
                            accepted and      90 rejected.
  | Shrink_full_auxil_basis : there are totally     286 partial auxiliary wave functions.
 
  | Number of product basis functions per thread :    72
  | Minimal requirement for computer memories :           0.005 Gbs
 
  Basis pair condensation :      1953  -->       1953
 
 ----------------------------------------------------
  Integrating the 3-basis-function Coulomb matrix ...
  | i_atom:            1
  | i_atom:            2
  Integrating the Coulomb interaction matrix for auxiliary basis functions (by atoms)

  SBT integration errors (all should be 'small'):
  large logFT aliasing -> increase N/lnrange
  large SBT aliasing -> decrease lnk0 & increase lnk0+lnrange
  large SBT ringing -> decrease lnr0 & increase lnr0+lnrange
  |            El't  L: logFT-al.   small-k   large-k   small-r   large-r
  Atomic logSBT for 2-center Coulomb matrix    :  max(cpu_time)    wall_clock(cpu1)
  | Multiplication with kernel                 :        0.024 s           0.008 s
  | Main matrix multiplication                 :        0.092 s           0.044 s
  | Analytic angular integration               :        0.004 s           0.004 s
  | Kernel construction                        :        0.004 s           0.002 s
  | Overall 2-center overlap time              :        0.128 s           0.062 s

  Difference of Coulomb matrix to its transposed:  3.1919E-16
  Task     0: Eigenvalues of the Coulomb matrix range from    2.0000E+00 to    2.0625E-09.
  Task     0: Using      281   eigenvalues out of rank      286   Coulomb matrix (auxiliary basis).
  Task     0: Still using eigenvalue     5.6973E-05 while cutting     1.8786E-06 in Coulomb matrix.
 
  Multiplying V^-0.5 x ovlp_3fn (1d-scalapack)

  Initialize hartree_potential_storage
  Max. number of atoms included in rho_multipole:            2

  End scf initialization - timings             :  max(cpu_time)    wall_clock(cpu1)
  | Time for scf. initialization               :       24.198 s          24.228 s
  | Boundary condition initialization          :        0.000 s           0.001 s
  | Integration                                :        0.480 s           0.479 s
  | Solution of K.-S. eqns.                    :        0.008 s           0.005 s
  | Grid partitioning                          :        0.232 s           0.231 s
  | Preloading free-atom quantities on grid    :        0.072 s           0.071 s
  | Free-atom superposition energy             :        0.036 s           0.033 s
  | Total energy evaluation                    :        0.004 s           0.000 s
  | Product basis setup: Total time            :       23.301 s          23.330 s
  | Product basis: | 3-center integrations     :       22.789 s          22.837 s
  | Product basis: | 2-center integrations     :        0.296 s           0.295 s
  | Product basis: | 2-center linear algebra   :        0.068 s           0.070 s
  | Product basis: | 3-center x 2-center       :        0.024 s           0.023 s
------------------------------------------------------------

------------------------------------------------------------
          Begin self-consistency iteration #    1

  Date     :  20140812, Time     :  111641.952
------------------------------------------------------------
  Evaluating new KS density.
  Integration grid: deviation in total charge (<rho> - N_e) =   0.000000E+00
  Pulay mixing of updated and previous charge densities.

  Evaluating partitioned Hartree potential by multipole expansion.
  | Analytical far-field extrapolation by fixed multipoles:
  | Hartree multipole sum: apparent total charge =  -0.103084E-06
  Summing up the Hartree potential.
  Time summed over all CPUs for potential: real work        0.962 s, elapsed        0.970 s
  | RMS charge density error from multipole expansion :   0.550699E-03

  Integrating Hamiltonian matrix: batch-based integration.
  Time summed over all CPUs for integration: real work        1.049 s, elapsed        1.053 s
  Evaluating the exchange matrix ... 

  Updating Kohn-Sham eigenvalues, eigenvectors, occupation numbers, and Fermi level.
  Solving generalized eigenproblem
  Updating Kohn-Sham eigenvalues and eigenfunctions.
  Solving real generalised eigenvalue problem by standard LAPACK (fast)
  Determining occupation numbers for Kohn-Sham eigenstates.
  | Chemical potential (Fermi level) in eV                 : -.64344900E+01
  | Error in electron count due to remaining E_F inaccuracy: 0.00000000E+00
  | Maximum occupation number of highest empty state:  0.00E+00

  Writing Kohn-Sham eigenvalues.

  State    Occupation    Eigenvalue [Ha]    Eigenvalue [eV]
      1       2.00000          -0.564401          -15.35813
      2       0.00000           0.091475            2.48915
      3       0.00000           0.147949            4.02591
      4       0.00000           0.323556            8.80441
      5       0.00000           0.342688            9.32500
      6       0.00000           0.342688            9.32500
      7       0.00000           0.592705           16.12833
      8       0.00000           0.612860           16.67676
      9       0.00000           0.612860           16.67676
     10       0.00000           0.814440           22.16204
     11       0.00000           0.869764           23.66748
     12       0.00000           1.096319           29.83236
     13       0.00000           1.098480           29.89115
     14       0.00000           1.098480           29.89115
     15       0.00000           1.401502           38.13682
     16       0.00000           1.401502           38.13682
     17       0.00000           1.612377           43.87501
     18       0.00000           1.612377           43.87501
     19       0.00000           1.783107           48.52080
     20       0.00000           1.783107           48.52080
     21       0.00000           1.871754           50.93302
     22       0.00000           1.944200           52.90438
     23       0.00000           1.944200           52.90438
     24       0.00000           2.230737           60.70145
     25       0.00000           2.430557           66.13883
     26       0.00000           2.589153           70.45442
     27       0.00000           2.589153           70.45442
     28       0.00000           3.163128           86.07308
     29       0.00000           3.163128           86.07308
     30       0.00000           3.321201           90.37448
     31       0.00000           3.536481           96.23255
     32       0.00000           3.591124           97.71946
     33       0.00000           3.591124           97.71946
     34       0.00000           4.154381          113.04647
     35       0.00000           4.154381          113.04647
     36       0.00000           4.588560          124.86106
     37       0.00000           4.588560          124.86106
     38       0.00000           5.065957          137.85171
     39       0.00000           5.135151          139.73456
     40       0.00000           5.135151          139.73456
     41       0.00000           5.169815          140.67782
     42       0.00000           5.838008          158.86029
     43       0.00000           5.838008          158.86029
     44       0.00000           6.037320          164.28383
     45       0.00000           6.037320          164.28383
     46       0.00000           6.055753          164.78543
     47       0.00000           6.055753          164.78543
     48       0.00000           6.281138          170.91846
     49       0.00000           6.281138          170.91846
     50       0.00000           6.714000          182.69722
     51       0.00000           7.224665          196.59315
     52       0.00000           7.831274          213.09981
     53       0.00000           7.831274          213.09981
     54       0.00000           8.528379          232.06899
     55       0.00000           8.528379          232.06899
     56       0.00000           9.446848          257.06180
     57       0.00000          11.907586          324.02190
     58       0.00000          12.578173          342.26950
     59       0.00000          12.578173          342.26950
     60       0.00000          16.514295          449.37682
     61       0.00000          23.292782          633.82886
     62       0.00000          31.070609          845.47429

  Highest occupied state (VBM) at    -15.35813008 eV
  | Occupation number:      2.00000000

  Lowest unoccupied state (CBM) at     2.48915008 eV
  | Occupation number:      0.00000000

  Overall HOMO-LUMO gap:     17.84728016 eV.

  Total energy components:
  | Sum of eigenvalues            :          -1.12880181 Ha         -30.71626016 eV
  | XC energy correction          :           0.60142462 Ha          16.36559665 eV
  | XC potential correction       :           0.00000000 Ha           0.00000000 eV
  | Free-atom electrostatic energy:          -0.45237908 Ha         -12.30986111 eV
  | Hartree energy correction     :          -0.12543949 Ha          -3.41338213 eV
  | Entropy correction            :           0.00000000 Ha           0.00000000 eV
  | ---------------------------
  | Total energy                  :          -1.10519576 Ha         -30.07390674 eV
  | Total energy, T -> 0          :          -1.10519576 Ha         -30.07390674 eV  <-- do not rely on this value for anything but (periodic) metals
  | Electronic free energy        :          -1.10519576 Ha         -30.07390674 eV

  Derived energy quantities:
  | Kinetic energy                :           0.92271793 Ha          25.10843239 eV
  | Electrostatic energy          :          -1.42648907 Ha         -38.81674248 eV
  | Energy correction for multipole
  | error in Hartree potential    :          -0.00008484 Ha          -0.00230862 eV
  | Sum of eigenvalues per atom                           :         -15.35813008 eV
  | Total energy (T->0) per atom                          :         -15.03695337 eV  <-- do not rely on this value for anything but (periodic) metals
  | Electronic free energy per atom                       :         -15.03695337 eV

  Self-consistency convergence accuracy:
  | Change of charge density      : 0.1103E+00
  | Change of sum of eigenvalues  : -.8042E+01 eV
  | Change of total energy        : 0.6600E+00 eV

  End self-consistency iteration #     1       :  max(cpu_time)    wall_clock(cpu1)
  | Time for this iteration                    :        0.728 s           0.725 s
  | Charge density update                      :        0.140 s           0.137 s
  | Density mixing                             :        0.004 s           0.002 s
  | Hartree multipole update                   :        0.060 s           0.060 s
  | Hartree multipole summation                :        0.244 s           0.243 s
  | Integration                                :        0.264 s           0.264 s
  | Fock matrix evaluation                     :        0.016 s           0.015 s
  | Solution of K.-S. eqns.                    :        0.000 s           0.002 s
  | Total energy evaluation                    :        0.000 s           0.000 s
------------------------------------------------------------

------------------------------------------------------------
          Begin self-consistency iteration #    2

  Date     :  20140812, Time     :  111642.678
------------------------------------------------------------
  Evaluating new KS density.
  Integration grid: deviation in total charge (<rho> - N_e) =  -2.442491E-15
  Pulay mixing of updated and previous charge densities.

  Evaluating partitioned Hartree potential by multipole expansion.
  | Analytical far-field extrapolation by fixed multipoles:
  | Hartree multipole sum: apparent total charge =  -0.113529E-06
  Summing up the Hartree potential.
  Time summed over all CPUs for potential: real work        0.970 s, elapsed        0.976 s
  | RMS charge density error from multipole expansion :   0.999110E-03

  Integrating Hamiltonian matrix: batch-based integration.
  Time summed over all CPUs for integration: real work        1.026 s, elapsed        1.039 s
  Evaluating the exchange matrix ... 

  Updating Kohn-Sham eigenvalues, eigenvectors, occupation numbers, and Fermi level.
  Solving generalized eigenproblem
  Updating Kohn-Sham eigenvalues and eigenfunctions.
  Solving real generalised eigenvalue problem by standard LAPACK (fast)
  Determining occupation numbers for Kohn-Sham eigenstates.
  | Chemical potential (Fermi level) in eV                 : -.57295556E+01
  | Error in electron count due to remaining E_F inaccuracy: 0.00000000E+00
  | Maximum occupation number of highest empty state:  0.00E+00

  Highest occupied state (VBM) at    -14.09678866 eV
  | Occupation number:      2.00000000

  Lowest unoccupied state (CBM) at     2.63767742 eV
  | Occupation number:      0.00000000

  Overall HOMO-LUMO gap:     16.73446608 eV.

  Total energy components:
  | Sum of eigenvalues            :          -1.03609492 Ha         -28.19357733 eV
  | XC energy correction          :           0.59934670 Ha          16.30905337 eV
  | XC potential correction       :           0.00000000 Ha           0.00000000 eV
  | Free-atom electrostatic energy:          -0.45237908 Ha         -12.30986111 eV
  | Hartree energy correction     :          -0.21302560 Ha          -5.79672157 eV
  | Entropy correction            :           0.00000000 Ha           0.00000000 eV
  | ---------------------------
  | Total energy                  :          -1.10215291 Ha         -29.99110663 eV
  | Total energy, T -> 0          :          -1.10215291 Ha         -29.99110663 eV  <-- do not rely on this value for anything but (periodic) metals
  | Electronic free energy        :          -1.10215291 Ha         -29.99110663 eV

  Derived energy quantities:
  | Kinetic energy                :           0.97883001 Ha          26.63531970 eV
  | Electrostatic energy          :          -1.48163622 Ha         -40.31737297 eV
  | Energy correction for multipole
  | error in Hartree potential    :          -0.00012364 Ha          -0.00336431 eV
  | Sum of eigenvalues per atom                           :         -14.09678866 eV
  | Total energy (T->0) per atom                          :         -14.99555332 eV  <-- do not rely on this value for anything but (periodic) metals
  | Electronic free energy per atom                       :         -14.99555332 eV

  Self-consistency convergence accuracy:
  | Change of charge density      : 0.4341E-01
  | Change of sum of eigenvalues  : 0.2523E+01 eV
  | Change of total energy        : 0.8280E-01 eV

  End self-consistency iteration #     2       :  max(cpu_time)    wall_clock(cpu1)
  | Time for this iteration                    :        0.716 s           0.716 s
  | Charge density update                      :        0.136 s           0.133 s
  | Density mixing                             :        0.004 s           0.004 s
  | Hartree multipole update                   :        0.064 s           0.060 s
  | Hartree multipole summation                :        0.244 s           0.245 s
  | Integration                                :        0.260 s           0.260 s
  | Fock matrix evaluation                     :        0.012 s           0.012 s
  | Solution of K.-S. eqns.                    :        0.004 s           0.002 s
  | Total energy evaluation                    :        0.000 s           0.000 s
------------------------------------------------------------

------------------------------------------------------------
          Begin self-consistency iteration #    3

  Date     :  20140812, Time     :  111643.395
------------------------------------------------------------
  Evaluating new KS density.
  Integration grid: deviation in total charge (<rho> - N_e) =   4.440892E-15
  Pulay mixing of updated and previous charge densities.

  Evaluating partitioned Hartree potential by multipole expansion.
  | Analytical far-field extrapolation by fixed multipoles:
  | Hartree multipole sum: apparent total charge =  -0.108866E-06
  Summing up the Hartree potential.
  Time summed over all CPUs for potential: real work        0.971 s, elapsed        0.994 s
  | RMS charge density error from multipole expansion :   0.894993E-03

  Integrating Hamiltonian matrix: batch-based integration.
  Time summed over all CPUs for integration: real work        1.047 s, elapsed        1.076 s
  Evaluating the exchange matrix ... 

  Updating Kohn-Sham eigenvalues, eigenvectors, occupation numbers, and Fermi level.
  Solving generalized eigenproblem
  Updating Kohn-Sham eigenvalues and eigenfunctions.
  Solving real generalised eigenvalue problem by standard LAPACK (fast)
  Determining occupation numbers for Kohn-Sham eigenstates.
  | Chemical potential (Fermi level) in eV                 : -.59084752E+01
  | Error in electron count due to remaining E_F inaccuracy: 0.00000000E+00
  | Maximum occupation number of highest empty state:  0.00E+00

  Highest occupied state (VBM) at    -14.38181443 eV
  | Occupation number:      2.00000000

  Lowest unoccupied state (CBM) at     2.56486405 eV
  | Occupation number:      0.00000000

  Overall HOMO-LUMO gap:     16.94667848 eV.

  Total energy components:
  | Sum of eigenvalues            :          -1.05704393 Ha         -28.76362886 eV
  | XC energy correction          :           0.58612777 Ha          15.94934818 eV
  | XC potential correction       :           0.00000000 Ha           0.00000000 eV
  | Free-atom electrostatic energy:          -0.45237908 Ha         -12.30986111 eV
  | Hartree energy correction     :          -0.18194026 Ha          -4.95084644 eV
  | Entropy correction            :           0.00000000 Ha           0.00000000 eV
  | ---------------------------
  | Total energy                  :          -1.10523550 Ha         -30.07498822 eV
  | Total energy, T -> 0          :          -1.10523550 Ha         -30.07498822 eV  <-- do not rely on this value for anything but (periodic) metals
  | Electronic free energy        :          -1.10523550 Ha         -30.07498822 eV

  Derived energy quantities:
  | Kinetic energy                :           0.93575206 Ha          25.46310913 eV
  | Electrostatic energy          :          -1.45485979 Ha         -39.58874918 eV
  | Energy correction for multipole
  | error in Hartree potential    :          -0.00009409 Ha          -0.00256040 eV
  | Sum of eigenvalues per atom                           :         -14.38181443 eV
  | Total energy (T->0) per atom                          :         -15.03749411 eV  <-- do not rely on this value for anything but (periodic) metals
  | Electronic free energy per atom                       :         -15.03749411 eV

  Self-consistency convergence accuracy:
  | Change of charge density      : 0.1431E-01
  | Change of sum of eigenvalues  : -.5701E+00 eV
  | Change of total energy        : -.8388E-01 eV

  End self-consistency iteration #     3       :  max(cpu_time)    wall_clock(cpu1)
  | Time for this iteration                    :        0.740 s           0.740 s
  | Charge density update                      :        0.132 s           0.131 s
  | Density mixing                             :        0.008 s           0.008 s
  | Hartree multipole update                   :        0.064 s           0.062 s
  | Hartree multipole summation                :        0.252 s           0.250 s
  | Integration                                :        0.268 s           0.269 s
  | Fock matrix evaluation                     :        0.020 s           0.018 s
  | Solution of K.-S. eqns.                    :        0.004 s           0.001 s
  | Total energy evaluation                    :        0.000 s           0.001 s
------------------------------------------------------------

------------------------------------------------------------
          Begin self-consistency iteration #    4

  Date     :  20140812, Time     :  111644.135
------------------------------------------------------------
  Evaluating new KS density.
  Integration grid: deviation in total charge (<rho> - N_e) =   3.552714E-15
  Pulay mixing of updated and previous charge densities.

  Evaluating partitioned Hartree potential by multipole expansion.
  | Analytical far-field extrapolation by fixed multipoles:
  | Hartree multipole sum: apparent total charge =  -0.115095E-06
  Summing up the Hartree potential.
  Time summed over all CPUs for potential: real work        1.045 s, elapsed        1.116 s
  | RMS charge density error from multipole expansion :   0.916162E-03

  Integrating Hamiltonian matrix: batch-based integration.
  Time summed over all CPUs for integration: real work        1.051 s, elapsed        1.113 s
  Evaluating the exchange matrix ... 

  Updating Kohn-Sham eigenvalues, eigenvectors, occupation numbers, and Fermi level.
  Solving generalized eigenproblem
  Updating Kohn-Sham eigenvalues and eigenfunctions.
  Solving real generalised eigenvalue problem by standard LAPACK (fast)
  Determining occupation numbers for Kohn-Sham eigenstates.
  | Chemical potential (Fermi level) in eV                 : -.58959442E+01
  | Error in electron count due to remaining E_F inaccuracy: 0.00000000E+00
  | Maximum occupation number of highest empty state:  0.00E+00

  Highest occupied state (VBM) at    -14.32992482 eV
  | Occupation number:      2.00000000

  Lowest unoccupied state (CBM) at     2.53803639 eV
  | Occupation number:      0.00000000

  Overall HOMO-LUMO gap:     16.86796120 eV.

  Total energy components:
  | Sum of eigenvalues            :          -1.05323012 Ha         -28.65984963 eV
  | XC energy correction          :           0.58218237 Ha          15.84198844 eV
  | XC potential correction       :           0.00000000 Ha           0.00000000 eV
  | Free-atom electrostatic energy:          -0.45237908 Ha         -12.30986111 eV
  | Hartree energy correction     :          -0.17800033 Ha          -4.84363541 eV
  | Entropy correction            :           0.00000000 Ha           0.00000000 eV
  | ---------------------------
  | Total energy                  :          -1.10142715 Ha         -29.97135771 eV
  | Total energy, T -> 0          :          -1.10142715 Ha         -29.97135771 eV  <-- do not rely on this value for anything but (periodic) metals
  | Electronic free energy        :          -1.10142715 Ha         -29.97135771 eV

  Derived energy quantities:
  | Kinetic energy                :           0.92673958 Ha          25.21786694 eV
  | Electrostatic energy          :          -1.44598435 Ha         -39.34723622 eV
  | Energy correction for multipole
  | error in Hartree potential    :          -0.00008011 Ha          -0.00218003 eV
  | Sum of eigenvalues per atom                           :         -14.32992482 eV
  | Total energy (T->0) per atom                          :         -14.98567886 eV  <-- do not rely on this value for anything but (periodic) metals
  | Electronic free energy per atom                       :         -14.98567886 eV

  Self-consistency convergence accuracy:
  | Change of charge density      : 0.2682E-02
  | Change of sum of eigenvalues  : 0.1038E+00 eV
  | Change of total energy        : 0.1036E+00 eV

  End self-consistency iteration #     4       :  max(cpu_time)    wall_clock(cpu1)
  | Time for this iteration                    :        0.784 s           0.783 s
  | Charge density update                      :        0.140 s           0.138 s
  | Density mixing                             :        0.012 s           0.012 s
  | Hartree multipole update                   :        0.060 s           0.060 s
  | Hartree multipole summation                :        0.280 s           0.280 s
  | Integration                                :        0.280 s           0.279 s
  | Fock matrix evaluation                     :        0.012 s           0.012 s
  | Solution of K.-S. eqns.                    :        0.004 s           0.001 s
  | Total energy evaluation                    :        0.000 s           0.000 s
------------------------------------------------------------

------------------------------------------------------------
          Begin self-consistency iteration #    5

  Date     :  20140812, Time     :  111644.918
------------------------------------------------------------
  Evaluating new KS density.
  Integration grid: deviation in total charge (<rho> - N_e) =   1.065814E-14
  Pulay mixing of updated and previous charge densities.

  Evaluating partitioned Hartree potential by multipole expansion.
  | Analytical far-field extrapolation by fixed multipoles:
  | Hartree multipole sum: apparent total charge =  -0.115735E-06
  Summing up the Hartree potential.
  Time summed over all CPUs for potential: real work        0.976 s, elapsed        0.990 s
  | RMS charge density error from multipole expansion :   0.913661E-03

  Integrating Hamiltonian matrix: batch-based integration.
  Time summed over all CPUs for integration: real work        1.045 s, elapsed        1.077 s
  Evaluating the exchange matrix ... 

  Updating Kohn-Sham eigenvalues, eigenvectors, occupation numbers, and Fermi level.
  Solving generalized eigenproblem
  Updating Kohn-Sham eigenvalues and eigenfunctions.
  Solving real generalised eigenvalue problem by standard LAPACK (fast)
  Determining occupation numbers for Kohn-Sham eigenstates.
  | Chemical potential (Fermi level) in eV                 : -.59008658E+01
  | Error in electron count due to remaining E_F inaccuracy: 0.00000000E+00
  | Maximum occupation number of highest empty state:  0.00E+00

  Highest occupied state (VBM) at    -14.33007326 eV
  | Occupation number:      2.00000000

  Lowest unoccupied state (CBM) at     2.52834158 eV
  | Occupation number:      0.00000000

  Overall HOMO-LUMO gap:     16.85841484 eV.

  Total energy components:
  | Sum of eigenvalues            :          -1.05324103 Ha         -28.66014652 eV
  | XC energy correction          :           0.57941667 Ha          15.76672992 eV
  | XC potential correction       :           0.00000000 Ha           0.00000000 eV
  | Free-atom electrostatic energy:          -0.45237908 Ha         -12.30986111 eV
  | Hartree energy correction     :          -0.17604004 Ha          -4.79029316 eV
  | Entropy correction            :           0.00000000 Ha           0.00000000 eV
  | ---------------------------
  | Total energy                  :          -1.10224347 Ha         -29.99357087 eV
  | Total energy, T -> 0          :          -1.10224347 Ha         -29.99357087 eV  <-- do not rely on this value for anything but (periodic) metals
  | Electronic free energy        :          -1.10224347 Ha         -29.99357087 eV

  Derived energy quantities:
  | Kinetic energy                :           0.92126429 Ha          25.06887674 eV
  | Electrostatic energy          :          -1.44409108 Ha         -39.29571769 eV
  | Energy correction for multipole
  | error in Hartree potential    :          -0.00007760 Ha          -0.00211159 eV
  | Sum of eigenvalues per atom                           :         -14.33007326 eV
  | Total energy (T->0) per atom                          :         -14.99678543 eV  <-- do not rely on this value for anything but (periodic) metals
  | Electronic free energy per atom                       :         -14.99678543 eV

  Self-consistency convergence accuracy:
  | Change of charge density      : 0.5228E-03
  | Change of sum of eigenvalues  : -.2969E-03 eV
  | Change of total energy        : -.2221E-01 eV

  End self-consistency iteration #     5       :  max(cpu_time)    wall_clock(cpu1)
  | Time for this iteration                    :        0.748 s           0.748 s
  | Charge density update                      :        0.140 s           0.137 s
  | Density mixing                             :        0.016 s           0.016 s
  | Hartree multipole update                   :        0.064 s           0.063 s
  | Hartree multipole summation                :        0.248 s           0.248 s
  | Integration                                :        0.272 s           0.270 s
  | Fock matrix evaluation                     :        0.012 s           0.012 s
  | Solution of K.-S. eqns.                    :        0.004 s           0.001 s
  | Total energy evaluation                    :        0.000 s           0.000 s
------------------------------------------------------------

------------------------------------------------------------
          Begin self-consistency iteration #    6

  Date     :  20140812, Time     :  111645.666
------------------------------------------------------------
  Evaluating new KS density.
  Integration grid: deviation in total charge (<rho> - N_e) =  -2.220446E-15
  Pulay mixing of updated and previous charge densities.

  Evaluating partitioned Hartree potential by multipole expansion.
  | Analytical far-field extrapolation by fixed multipoles:
  | Hartree multipole sum: apparent total charge =  -0.116184E-06
  Summing up the Hartree potential.
  Time summed over all CPUs for potential: real work        0.962 s, elapsed        0.971 s
  | RMS charge density error from multipole expansion :   0.917550E-03

  Integrating Hamiltonian matrix: batch-based integration.
  Time summed over all CPUs for integration: real work        1.036 s, elapsed        1.046 s
  Evaluating the exchange matrix ... 

  Updating Kohn-Sham eigenvalues, eigenvectors, occupation numbers, and Fermi level.
  Solving generalized eigenproblem
  Updating Kohn-Sham eigenvalues and eigenfunctions.
  Solving real generalised eigenvalue problem by standard LAPACK (fast)
  Determining occupation numbers for Kohn-Sham eigenstates.
  | Chemical potential (Fermi level) in eV                 : -.58968531E+01
  | Error in electron count due to remaining E_F inaccuracy: 0.00000000E+00
  | Maximum occupation number of highest empty state:  0.00E+00

  Highest occupied state (VBM) at    -14.32294871 eV
  | Occupation number:      2.00000000

  Lowest unoccupied state (CBM) at     2.52924246 eV
  | Occupation number:      0.00000000

  Overall HOMO-LUMO gap:     16.85219117 eV.

  Total energy components:
  | Sum of eigenvalues            :          -1.05271738 Ha         -28.64589743 eV
  | XC energy correction          :           0.57907995 Ha          15.75756726 eV
  | XC potential correction       :           0.00000000 Ha           0.00000000 eV
  | Free-atom electrostatic energy:          -0.45237908 Ha         -12.30986111 eV
  | Hartree energy correction     :          -0.17651478 Ha          -4.80321156 eV
  | Entropy correction            :           0.00000000 Ha           0.00000000 eV
  | ---------------------------
  | Total energy                  :          -1.10253129 Ha         -30.00140283 eV
  | Total energy, T -> 0          :          -1.10253129 Ha         -30.00140283 eV  <-- do not rely on this value for anything but (periodic) metals
  | Electronic free energy        :          -1.10253129 Ha         -30.00140283 eV

  Derived energy quantities:
  | Kinetic energy                :           0.92058574 Ha          25.05041257 eV
  | Electrostatic energy          :          -1.44403708 Ha         -39.29424814 eV
  | Energy correction for multipole
  | error in Hartree potential    :          -0.00007732 Ha          -0.00210390 eV
  | Sum of eigenvalues per atom                           :         -14.32294871 eV
  | Total energy (T->0) per atom                          :         -15.00070141 eV  <-- do not rely on this value for anything but (periodic) metals
  | Electronic free energy per atom                       :         -15.00070141 eV

  Self-consistency convergence accuracy:
  | Change of charge density      : 0.2387E-03
  | Change of sum of eigenvalues  : 0.1425E-01 eV
  | Change of total energy        : -.7832E-02 eV

  End self-consistency iteration #     6       :  max(cpu_time)    wall_clock(cpu1)
  | Time for this iteration                    :        0.740 s           0.739 s
  | Charge density update                      :        0.136 s           0.136 s
  | Density mixing                             :        0.020 s           0.019 s
  | Hartree multipole update                   :        0.064 s           0.064 s
  | Hartree multipole summation                :        0.244 s           0.244 s
  | Integration                                :        0.264 s           0.261 s
  | Fock matrix evaluation                     :        0.016 s           0.013 s
  | Solution of K.-S. eqns.                    :        0.000 s           0.001 s
  | Total energy evaluation                    :        0.004 s           0.001 s
------------------------------------------------------------

------------------------------------------------------------
          Begin self-consistency iteration #    7

  Date     :  20140812, Time     :  111646.405
------------------------------------------------------------
  Evaluating new KS density.
  Integration grid: deviation in total charge (<rho> - N_e) =  -3.108624E-15
  Pulay mixing of updated and previous charge densities.

  Evaluating partitioned Hartree potential by multipole expansion.
  | Analytical far-field extrapolation by fixed multipoles:
  | Hartree multipole sum: apparent total charge =  -0.116140E-06
  Summing up the Hartree potential.
  Time summed over all CPUs for potential: real work        0.976 s, elapsed        0.989 s
  | RMS charge density error from multipole expansion :   0.916998E-03

  Integrating Hamiltonian matrix: batch-based integration.
  Time summed over all CPUs for integration: real work        1.040 s, elapsed        1.056 s
  Evaluating the exchange matrix ... 

  Updating Kohn-Sham eigenvalues, eigenvectors, occupation numbers, and Fermi level.
  Solving generalized eigenproblem
  Updating Kohn-Sham eigenvalues and eigenfunctions.
  Solving real generalised eigenvalue problem by standard LAPACK (fast)
  Determining occupation numbers for Kohn-Sham eigenstates.
  | Chemical potential (Fermi level) in eV                 : -.58976993E+01
  | Error in electron count due to remaining E_F inaccuracy: 0.00000000E+00
  | Maximum occupation number of highest empty state:  0.00E+00

  Highest occupied state (VBM) at    -14.32412935 eV
  | Occupation number:      2.00000000

  Lowest unoccupied state (CBM) at     2.52873069 eV
  | Occupation number:      0.00000000

  Overall HOMO-LUMO gap:     16.85286005 eV.

  Total energy components:
  | Sum of eigenvalues            :          -1.05280416 Ha         -28.64825871 eV
  | XC energy correction          :           0.57897653 Ha          15.75475296 eV
  | XC potential correction       :           0.00000000 Ha           0.00000000 eV
  | Free-atom electrostatic energy:          -0.45237908 Ha         -12.30986111 eV
  | Hartree energy correction     :          -0.17638498 Ha          -4.79967960 eV
  | Entropy correction            :           0.00000000 Ha           0.00000000 eV
  | ---------------------------
  | Total energy                  :          -1.10259169 Ha         -30.00304646 eV
  | Total energy, T -> 0          :          -1.10259169 Ha         -30.00304646 eV  <-- do not rely on this value for anything but (periodic) metals
  | Electronic free energy        :          -1.10259169 Ha         -30.00304646 eV

  Derived energy quantities:
  | Kinetic energy                :           0.92037024 Ha          25.04454844 eV
  | Electrostatic energy          :          -1.44398540 Ha         -39.29284194 eV
  | Energy correction for multipole
  | error in Hartree potential    :          -0.00007734 Ha          -0.00210453 eV
  | Sum of eigenvalues per atom                           :         -14.32412935 eV
  | Total energy (T->0) per atom                          :         -15.00152323 eV  <-- do not rely on this value for anything but (periodic) metals
  | Electronic free energy per atom                       :         -15.00152323 eV

  Self-consistency convergence accuracy:
  | Change of charge density      : 0.3444E-04
  | Change of sum of eigenvalues  : -.2361E-02 eV
  | Change of total energy        : -.1644E-02 eV

  End self-consistency iteration #     7       :  max(cpu_time)    wall_clock(cpu1)
  | Time for this iteration                    :        0.744 s           0.743 s
  | Charge density update                      :        0.132 s           0.131 s
  | Density mixing                             :        0.024 s           0.022 s
  | Hartree multipole update                   :        0.064 s           0.064 s
  | Hartree multipole summation                :        0.248 s           0.248 s
  | Integration                                :        0.264 s           0.265 s
  | Fock matrix evaluation                     :        0.012 s           0.012 s
  | Solution of K.-S. eqns.                    :        0.004 s           0.001 s
  | Total energy evaluation                    :        0.000 s           0.000 s
------------------------------------------------------------

------------------------------------------------------------
          Begin self-consistency iteration #    8

  Date     :  20140812, Time     :  111647.149
------------------------------------------------------------
  Evaluating new KS density.
  Integration grid: deviation in total charge (<rho> - N_e) =  -4.440892E-16
  Pulay mixing of updated and previous charge densities.

  Evaluating partitioned Hartree potential by multipole expansion.
  | Analytical far-field extrapolation by fixed multipoles:
  | Hartree multipole sum: apparent total charge =  -0.116143E-06
  Summing up the Hartree potential.
  Time summed over all CPUs for potential: real work        0.963 s, elapsed        0.981 s
  | RMS charge density error from multipole expansion :   0.917027E-03

  Integrating Hamiltonian matrix: batch-based integration.
  Time summed over all CPUs for integration: real work        1.036 s, elapsed        1.049 s
  Evaluating the exchange matrix ... 

  Updating Kohn-Sham eigenvalues, eigenvectors, occupation numbers, and Fermi level.
  Solving generalized eigenproblem
  Updating Kohn-Sham eigenvalues and eigenfunctions.
  Solving real generalised eigenvalue problem by standard LAPACK (fast)
  Determining occupation numbers for Kohn-Sham eigenstates.
  | Chemical potential (Fermi level) in eV                 : -.58976313E+01
  | Error in electron count due to remaining E_F inaccuracy: 0.00000000E+00
  | Maximum occupation number of highest empty state:  0.00E+00

  Highest occupied state (VBM) at    -14.32403097 eV
  | Occupation number:      2.00000000

  Lowest unoccupied state (CBM) at     2.52876841 eV
  | Occupation number:      0.00000000

  Overall HOMO-LUMO gap:     16.85279939 eV.

  Total energy components:
  | Sum of eigenvalues            :          -1.05279693 Ha         -28.64806195 eV
  | XC energy correction          :           0.57897664 Ha          15.75475586 eV
  | XC potential correction       :           0.00000000 Ha           0.00000000 eV
  | Free-atom electrostatic energy:          -0.45237908 Ha         -12.30986111 eV
  | Hartree energy correction     :          -0.17639376 Ha          -4.79991835 eV
  | Entropy correction            :           0.00000000 Ha           0.00000000 eV
  | ---------------------------
  | Total energy                  :          -1.10259313 Ha         -30.00308554 eV
  | Total energy, T -> 0          :          -1.10259313 Ha         -30.00308554 eV  <-- do not rely on this value for anything but (periodic) metals
  | Electronic free energy        :          -1.10259313 Ha         -30.00308554 eV

  Derived energy quantities:
  | Kinetic energy                :           0.92037328 Ha          25.04463110 eV
  | Electrostatic energy          :          -1.44398977 Ha         -39.29296079 eV
  | Energy correction for multipole
  | error in Hartree potential    :          -0.00007734 Ha          -0.00210447 eV
  | Sum of eigenvalues per atom                           :         -14.32403097 eV
  | Total energy (T->0) per atom                          :         -15.00154277 eV  <-- do not rely on this value for anything but (periodic) metals
  | Electronic free energy per atom                       :         -15.00154277 eV

  Self-consistency convergence accuracy:
  | Change of charge density      : 0.1287E-05
  | Change of sum of eigenvalues  : 0.1968E-03 eV
  | Change of total energy        : -.3909E-04 eV

  End self-consistency iteration #     8       :  max(cpu_time)    wall_clock(cpu1)
  | Time for this iteration                    :        0.748 s           0.748 s
  | Charge density update                      :        0.136 s           0.133 s
  | Density mixing                             :        0.028 s           0.027 s
  | Hartree multipole update                   :        0.064 s           0.062 s
  | Hartree multipole summation                :        0.248 s           0.246 s
  | Integration                                :        0.264 s           0.263 s
  | Fock matrix evaluation                     :        0.016 s           0.015 s
  | Solution of K.-S. eqns.                    :        0.004 s           0.002 s
  | Total energy evaluation                    :        0.000 s           0.000 s
------------------------------------------------------------

------------------------------------------------------------
          Begin self-consistency iteration #    9

  Date     :  20140812, Time     :  111647.898
------------------------------------------------------------
  Evaluating new KS density.
  Integration grid: deviation in total charge (<rho> - N_e) =  -2.220446E-16
  Pulay mixing of updated and previous charge densities.

  Evaluating partitioned Hartree potential by multipole expansion.
  | Analytical far-field extrapolation by fixed multipoles:
  | Hartree multipole sum: apparent total charge =  -0.116141E-06
  Summing up the Hartree potential.
  Time summed over all CPUs for potential: real work        0.997 s, elapsed        1.043 s
  | RMS charge density error from multipole expansion :   0.917012E-03

  Integrating Hamiltonian matrix: batch-based integration.
  Time summed over all CPUs for integration: real work        1.052 s, elapsed        1.071 s
  Evaluating the exchange matrix ... 

  Updating Kohn-Sham eigenvalues, eigenvectors, occupation numbers, and Fermi level.
  Solving generalized eigenproblem
  Updating Kohn-Sham eigenvalues and eigenfunctions.
  Solving real generalised eigenvalue problem by standard LAPACK (fast)
  Determining occupation numbers for Kohn-Sham eigenstates.
  | Chemical potential (Fermi level) in eV                 : -.58976566E+01
  | Error in electron count due to remaining E_F inaccuracy: 0.00000000E+00
  | Maximum occupation number of highest empty state:  0.00E+00

  Highest occupied state (VBM) at    -14.32406655 eV
  | Occupation number:      2.00000000

  Lowest unoccupied state (CBM) at     2.52875336 eV
  | Occupation number:      0.00000000

  Overall HOMO-LUMO gap:     16.85281991 eV.

  Total energy components:
  | Sum of eigenvalues            :          -1.05279954 Ha         -28.64813309 eV
  | XC energy correction          :           0.57897633 Ha          15.75474744 eV
  | XC potential correction       :           0.00000000 Ha           0.00000000 eV
  | Free-atom electrostatic energy:          -0.45237908 Ha         -12.30986111 eV
  | Hartree energy correction     :          -0.17638999 Ha          -4.79981571 eV
  | Entropy correction            :           0.00000000 Ha           0.00000000 eV
  | ---------------------------
  | Total energy                  :          -1.10259228 Ha         -30.00306246 eV
  | Total energy, T -> 0          :          -1.10259228 Ha         -30.00306246 eV  <-- do not rely on this value for anything but (periodic) metals
  | Electronic free energy        :          -1.10259228 Ha         -30.00306246 eV

  Derived energy quantities:
  | Kinetic energy                :           0.92037215 Ha          25.04460048 eV
  | Electrostatic energy          :          -1.44398810 Ha         -39.29291550 eV
  | Energy correction for multipole
  | error in Hartree potential    :          -0.00007734 Ha          -0.00210449 eV
  | Sum of eigenvalues per atom                           :         -14.32406655 eV
  | Total energy (T->0) per atom                          :         -15.00153123 eV  <-- do not rely on this value for anything but (periodic) metals
  | Electronic free energy per atom                       :         -15.00153123 eV

  Self-consistency convergence accuracy:
  | Change of charge density      : 0.9191E-06
  | Change of sum of eigenvalues  : -.7114E-04 eV
  | Change of total energy        : 0.2308E-04 eV

  End self-consistency iteration #     9       :  max(cpu_time)    wall_clock(cpu1)
  | Time for this iteration                    :        0.832 s           0.834 s
  | Charge density update                      :        0.160 s           0.159 s
  | Density mixing                             :        0.040 s           0.038 s
  | Hartree multipole update                   :        0.092 s           0.091 s
  | Hartree multipole summation                :        0.264 s           0.263 s
  | Integration                                :        0.268 s           0.268 s
  | Fock matrix evaluation                     :        0.016 s           0.013 s
  | Solution of K.-S. eqns.                    :        0.000 s           0.001 s
  | Total energy evaluation                    :        0.004 s           0.000 s
------------------------------------------------------------

------------------------------------------------------------
          Begin self-consistency iteration #   10

  Date     :  20140812, Time     :  111648.732
------------------------------------------------------------
  Evaluating new KS density.
  Integration grid: deviation in total charge (<rho> - N_e) =   4.884981E-15
  Pulay mixing of updated and previous charge densities.

  Evaluating partitioned Hartree potential by multipole expansion.
  | Analytical far-field extrapolation by fixed multipoles:
  | Hartree multipole sum: apparent total charge =  -0.116141E-06
  Summing up the Hartree potential.
  Time summed over all CPUs for potential: real work        0.960 s, elapsed        0.968 s
  | RMS charge density error from multipole expansion :   0.917013E-03

  Integrating Hamiltonian matrix: batch-based integration.
  Time summed over all CPUs for integration: real work        1.033 s, elapsed        1.056 s
  Evaluating the exchange matrix ... 

  Updating Kohn-Sham eigenvalues, eigenvectors, occupation numbers, and Fermi level.
  Solving generalized eigenproblem
  Updating Kohn-Sham eigenvalues and eigenfunctions.
  Solving real generalised eigenvalue problem by standard LAPACK (fast)
  Determining occupation numbers for Kohn-Sham eigenstates.
  | Chemical potential (Fermi level) in eV                 : -.58976543E+01
  | Error in electron count due to remaining E_F inaccuracy: 0.00000000E+00
  | Maximum occupation number of highest empty state:  0.00E+00

  Highest occupied state (VBM) at    -14.32406450 eV
  | Occupation number:      2.00000000

  Lowest unoccupied state (CBM) at     2.52875599 eV
  | Occupation number:      0.00000000

  Overall HOMO-LUMO gap:     16.85282049 eV.

  Total energy components:
  | Sum of eigenvalues            :          -1.05279939 Ha         -28.64812899 eV
  | XC energy correction          :           0.57897649 Ha          15.75475184 eV
  | XC potential correction       :           0.00000000 Ha           0.00000000 eV
  | Free-atom electrostatic energy:          -0.45237908 Ha         -12.30986111 eV
  | Hartree energy correction     :          -0.17639054 Ha          -4.79983092 eV
  | Entropy correction            :           0.00000000 Ha           0.00000000 eV
  | ---------------------------
  | Total energy                  :          -1.10259253 Ha         -30.00306918 eV
  | Total energy, T -> 0          :          -1.10259253 Ha         -30.00306918 eV  <-- do not rely on this value for anything but (periodic) metals
  | Electronic free energy        :          -1.10259253 Ha         -30.00306918 eV

  Derived energy quantities:
  | Kinetic energy                :           0.92037248 Ha          25.04460931 eV
  | Electrostatic energy          :          -1.44398851 Ha         -39.29292665 eV
  | Energy correction for multipole
  | error in Hartree potential    :          -0.00007734 Ha          -0.00210449 eV
  | Sum of eigenvalues per atom                           :         -14.32406450 eV
  | Total energy (T->0) per atom                          :         -15.00153459 eV  <-- do not rely on this value for anything but (periodic) metals
  | Electronic free energy per atom                       :         -15.00153459 eV

  Self-consistency convergence accuracy:
  | Change of charge density      : 0.1159E-06
  | Change of sum of eigenvalues  : 0.4096E-05 eV
  | Change of total energy        : -.6722E-05 eV

  End self-consistency iteration #    10       :  max(cpu_time)    wall_clock(cpu1)
  | Time for this iteration                    :        0.744 s           0.746 s
  | Charge density update                      :        0.132 s           0.131 s
  | Density mixing                             :        0.036 s           0.034 s
  | Hartree multipole update                   :        0.060 s           0.060 s
  | Hartree multipole summation                :        0.244 s           0.243 s
  | Integration                                :        0.264 s           0.264 s
  | Fock matrix evaluation                     :        0.012 s           0.012 s
  | Solution of K.-S. eqns.                    :        0.004 s           0.001 s
  | Total energy evaluation                    :        0.000 s           0.000 s
------------------------------------------------------------

------------------------------------------------------------
          Begin self-consistency iteration #   11

  Date     :  20140812, Time     :  111649.478
------------------------------------------------------------
  Evaluating new KS density.
  Integration grid: deviation in total charge (<rho> - N_e) =  -5.773160E-15
  Pulay mixing of updated and previous charge densities.

[...]

  Integrating Hamiltonian matrix: batch-based integration.
  Time summed over all CPUs for integration: real work        1.039 s, elapsed        1.055 s
  Evaluating the exchange matrix ... 

  Updating Kohn-Sham eigenvalues, eigenvectors, occupation numbers, and Fermi level.
  Solving generalized eigenproblem
  Updating Kohn-Sham eigenvalues and eigenfunctions.
  Solving real generalised eigenvalue problem by standard LAPACK (fast)
  Determining occupation numbers for Kohn-Sham eigenstates.
  | Chemical potential (Fermi level) in eV                 : -.58976541E+01
  | Error in electron count due to remaining E_F inaccuracy: 0.00000000E+00
  | Maximum occupation number of highest empty state:  0.00E+00

  Highest occupied state (VBM) at    -14.32406436 eV
  | Occupation number:      2.00000000

  Lowest unoccupied state (CBM) at     2.52875616 eV
  | Occupation number:      0.00000000

  Overall HOMO-LUMO gap:     16.85282052 eV.

  Total energy components:
  | Sum of eigenvalues            :          -1.05279938 Ha         -28.64812871 eV
  | XC energy correction          :           0.57897656 Ha          15.75475376 eV
  | XC potential correction       :           0.00000000 Ha           0.00000000 eV
  | Free-atom electrostatic energy:          -0.45237908 Ha         -12.30986111 eV
  | Hartree energy correction     :          -0.17639058 Ha          -4.79983185 eV
  | Entropy correction            :           0.00000000 Ha           0.00000000 eV
  | ---------------------------
  | Total energy                  :          -1.10259248 Ha         -30.00306792 eV
  | Total energy, T -> 0          :          -1.10259248 Ha         -30.00306792 eV  <-- do not rely on this value for anything but (periodic) metals
  | Electronic free energy        :          -1.10259248 Ha         -30.00306792 eV

  Derived energy quantities:
  | Kinetic energy                :           0.92037262 Ha          25.04461335 eV
  | Electrostatic energy          :          -1.44398854 Ha         -39.29292751 eV
  | Energy correction for multipole
  | error in Hartree potential    :          -0.00007734 Ha          -0.00210449 eV
  | Sum of eigenvalues per atom                           :         -14.32406436 eV
  | Total energy (T->0) per atom                          :         -15.00153396 eV  <-- do not rely on this value for anything but (periodic) metals
  | Electronic free energy per atom                       :         -15.00153396 eV

  Self-consistency convergence accuracy:
  | Change of charge density      : 0.1039E-08
  | Change of sum of eigenvalues  : 0.3249E-07 eV
  | Change of total energy        : 0.7699E-07 eV

  Writing Kohn-Sham eigenvalues.

  State    Occupation    Eigenvalue [Ha]    Eigenvalue [eV]
      1       2.00000          -0.526400          -14.32406
      2       0.00000           0.092930            2.52876
      3       0.00000           0.153114            4.16644
      4       0.00000           0.333307            9.06976
      5       0.00000           0.350110            9.52698
      6       0.00000           0.350110            9.52698
      7       0.00000           0.595102           16.19354
      8       0.00000           0.616212           16.76798
      9       0.00000           0.616212           16.76798
     10       0.00000           0.816018           22.20499
     11       0.00000           0.890141           24.22198
     12       0.00000           1.110318           30.21329
     13       0.00000           1.110318           30.21329
     14       0.00000           1.113530           30.30070
     15       0.00000           1.420633           38.65740
     16       0.00000           1.420633           38.65740
     17       0.00000           1.620636           44.09976
     18       0.00000           1.620636           44.09976
     19       0.00000           1.797640           48.91627
     20       0.00000           1.797640           48.91627
     21       0.00000           1.887973           51.37435
     22       0.00000           1.953033           53.14474
     23       0.00000           1.953033           53.14474
     24       0.00000           2.237553           60.88693
     25       0.00000           2.440947           66.42155
     26       0.00000           2.605435           70.89749
     27       0.00000           2.605435           70.89749
     28       0.00000           3.182095           86.58920
     29       0.00000           3.182095           86.58920
     30       0.00000           3.348325           91.11257
     31       0.00000           3.569985           97.14423
     32       0.00000           3.614861           98.36539
     33       0.00000           3.614862           98.36539
     34       0.00000           4.170959          113.49756
     35       0.00000           4.170959          113.49756
     36       0.00000           4.625879          125.87658
     37       0.00000           4.625879          125.87658
     38       0.00000           5.086975          138.42363
     39       0.00000           5.157284          140.33683
     40       0.00000           5.157284          140.33683
     41       0.00000           5.206875          141.68627
     42       0.00000           5.856024          159.35052
     43       0.00000           5.856024          159.35052
     44       0.00000           6.052916          164.70823
     45       0.00000           6.052916          164.70823
     46       0.00000           6.080156          165.44946
     47       0.00000           6.080156          165.44947
     48       0.00000           6.294191          171.27365
     49       0.00000           6.294191          171.27365
     50       0.00000           6.729864          183.12891
     51       0.00000           7.239030          196.98404
     52       0.00000           7.865723          214.03720
     53       0.00000           7.865723          214.03720
     54       0.00000           8.558910          232.89980
     55       0.00000           8.558910          232.89980
     56       0.00000           9.489381          258.21921
     57       0.00000          11.944825          325.03522
     58       0.00000          12.607982          343.08065
     59       0.00000          12.607982          343.08065
     60       0.00000          16.552499          450.41643
     61       0.00000          23.325396          634.71631
     62       0.00000          31.102269          846.33579

  Highest occupied state (VBM) at    -14.32406436 eV
  | Occupation number:      2.00000000

  Lowest unoccupied state (CBM) at     2.52875616 eV
  | Occupation number:      0.00000000

  Overall HOMO-LUMO gap:     16.85282052 eV.

  Self-consistency cycle converged.

  End self-consistency iteration #    12       :  max(cpu_time)    wall_clock(cpu1)
  | Time for this iteration                    :        0.760 s           0.760 s
  | Charge density update                      :        0.140 s           0.139 s
  | Density mixing                             :        0.040 s           0.037 s
  | Hartree multipole update                   :        0.060 s           0.060 s
  | Hartree multipole summation                :        0.244 s           0.245 s
  | Integration                                :        0.264 s           0.264 s
  | Fock matrix evaluation                     :        0.012 s           0.012 s
  | Solution of K.-S. eqns.                    :        0.004 s           0.001 s
  | Total energy evaluation                    :        0.000 s           0.000 s
------------------------------------------------------------

  Energy and forces in a compact form:
  | Total energy uncorrected      :         -0.300030679181888E+02 eV
  | Total energy corrected        :         -0.300030679181888E+02 eV  <-- do not rely on this value for anything but (periodic) metals
  | Electronic free energy        :         -0.300030679181888E+02 eV

  ------------------------------------ 
  Start decomposition of the XC Energy 
  ------------------------------------ 
  Hartree-Fock part   :          0.578976559 Ha             15.754753756 eV
  ------------------------------------ 
  X Energy            :          0.578976559 Ha             15.754753756 eV
  C Energy GGA        :          0.000000000 Ha              0.000000000 eV
  Total XC Energy     :          0.578976559 Ha             15.754753756 eV
  LDA X and C from self-consistent density 
  X Energy LDA        :         -0.502222117 Ha            -13.666159138 eV
  C Energy LDA        :         -0.089918375 Ha             -2.446803463 eV
  ------------------------------------ 
  End decomposition of the XC Energy 
  ------------------------------------ 
---------------------------------------------
---------------------------------------------
 | MP2 calculation starts ...
---------------------------------------------

  | Note : Resolution of identity applied 
  | Note : Non spin-polarized system 
---------------------------------------------
  | Homo level                                        1
  | Lumo level                                        2
  | Total Number of states                           62
  | Number of k-points                                1
  | Homo-Lumo Gap                            0.61932977 Ha         16.85282052 eV
---------------------------------------------
  The ovlp_3KS matrix takes another      0 MiB x      4 procs =       0.000 GiB.


---------------------------------------------
| Sum of correlation terms 
---------------------------------------------
  | Pair state     1                    :         -0.94281770 eV         -0.94281770 eV

---------------------------------------------
| Correlation energy spectrum 
---------------------------------------------
  |     2    :          0.09293008        -0.00411269
  |     3    :          0.15311372        -0.00121748
  |     4    :          0.33330738        -0.00727708
  |     5    :          0.35011006        -0.00197263
  |     6    :          0.35011006        -0.00197263
  |     7    :          0.59510176        -0.00068322
  |     8    :          0.61621186        -0.00020760
  |     9    :          0.61621186        -0.00020760
  |    10    :          0.81601830        -0.00006256
  |    11    :          0.89014137        -0.00223157
  |    12    :          1.11031789        -0.00021643
  |    13    :          1.11031792        -0.00021643
  |    14    :          1.11353033        -0.00387060
  |    15    :          1.42063338        -0.00119396
  |    16    :          1.42063338        -0.00119396
  |    17    :          1.62063638        -0.00005732
  |    18    :          1.62063644        -0.00005732
  |    19    :          1.79763978        -0.00076408
  |    20    :          1.79763978        -0.00076408
  |    21    :          1.88797270        -0.00102825
  |    22    :          1.95303321        -0.00027786
  |    23    :          1.95303321        -0.00027786
  |    24    :          2.23755337        -0.00012879
  |    25    :          2.44094708        -0.00020520
  |    26    :          2.60543474        -0.00022575
  |    27    :          2.60543474        -0.00022575
  |    28    :          3.18209461        -0.00004900
  |    29    :          3.18209461        -0.00004900
  |    30    :          3.34832542        -0.00079496
  |    31    :          3.56998478        -0.00069031
  |    32    :          3.61486146        -0.00010020
  |    33    :          3.61486152        -0.00010020
  |    34    :          4.17095881        -0.00002279
  |    35    :          4.17095881        -0.00002279
  |    36    :          4.62587935        -0.00024451
  |    37    :          4.62587935        -0.00024451
  |    38    :          5.08697508        -0.00011415
  |    39    :          5.15728376        -0.00008634
  |    40    :          5.15728385        -0.00008634
  |    41    :          5.20687465        -0.00031465
  |    42    :          5.85602396        -0.00001686
  |    43    :          5.85602401        -0.00001686
  |    44    :          6.05291638        -0.00007041
  |    45    :          6.05291638        -0.00007041
  |    46    :          6.08015599        -0.00006243
  |    47    :          6.08015622        -0.00006243
  |    48    :          6.29419077        -0.00002551
  |    49    :          6.29419077        -0.00002551
  |    50    :          6.72986386        -0.00006641
  |    51    :          7.23903044        -0.00004290
  |    52    :          7.86572268        -0.00007269
  |    53    :          7.86572268        -0.00007269
  |    54    :          8.55891029        -0.00011025
  |    55    :          8.55891029        -0.00011025
  |    56    :          9.48938144        -0.00008660
  |    57    :         11.94482484        -0.00005515
  |    58    :         12.60798212        -0.00003080
  |    59    :         12.60798212        -0.00003080
  |    60    :         16.55249949        -0.00002633
  |    61    :         23.32539564        -0.00001695
  |    62    :         31.10226865        -0.00000718
---------------------------------------------
 
 
 
          ---------------------------------------------
          | MP2 calculation comes to finish ...  
 
          ---------------------------------------------
          | Total time for calculating MP2 correction              :        0.000 s

          ---------------------------------------------

---------------------------------------------
  | HF Energy                      :         -1.10259248 Ha        -30.00306792 eV
  | MP2 correction                 :         -0.03464791 Ha         -0.94281770 eV
---------------------------------------------
  | Total Energy + MP2 correction  :         -1.13724039 Ha        -30.94588561 eV
---------------------------------------------

------------------------------------------------------------------------------
  Final output of selected total energy values:

  The following output summarizes some interesting total energy values
  at the end of a run (AFTER all relaxation, molecular dynamics, etc.).

  | Total energy of the DFT / Hartree-Fock s.c.f. calculation      :            -30.003067918 eV
  | Final zero-broadening corrected energy (caution - metals only) :            -30.003067918 eV
  | Total energy after the post-s.c.f. correlation calculation     :            -30.945885615 eV
  | For reference only, the value of 1 Hartree used in FHI-aims is :             27.211384500 eV

  Before relying on these values, please be sure to understand exactly which
  total energy value is referred to by a given number. Different objects may
  all carry the same name 'total energy'. Definitions:

  Total energy of the DFT / Hartree-Fock s.c.f. calculation:
  | Note that this energy does not include ANY quantities calculated after the
  | s.c.f. cycle, in particular not ANY RPA, MP2, etc. many-body perturbation terms.

  Final zero-broadening corrected energy:
  | For metallic systems only, a broadening of the occupation numbers at the Fermi
  | level can be extrapolated back to zero broadening by an electron-gas inspired
  | formula. For all systems that are not real metals, this value can be
  | meaningless and should be avoided.

  Total energy of the post-s.c.f. correlation calculation        :
  | The actual meaning of this energy depends on the setting for the 'total_energy_method'
  | keyword (MP2, RPA, rPT2, etc). If not sure, compare to the results listed above.

------------------------------------------------------------------------------

  Methods described in the following list of references were used in this FHI-aims run.
  If you publish the results, please make sure to cite these reference if they apply.
  FHI-aims is an academic code, and for our developers (often, Ph.D. students
  and postdocs), scientific credit in the community is essential.
  Thank you for helping us!

  For any use of FHI-aims, please cite:

    Volker Blum, Ralf Gehrke, Felix Hanke, Paula Havu, Ville Havu,
    Xinguo Ren, Karsten Reuter, and Matthias Scheffler,
    "Ab initio molecular simulations with numeric atom-centered orbitals"
    Computer Physics Communications 180, 2175-2196 (2009).
    http://dx.doi.org/10.1016/j.cpc.2009.06.022

  For Hartree-Fock, hybrid functionals, or many-body perturbation theory used in your run, please cite:

    Xinguo Ren, Patrick Rinke, Volker Blum, Juergen Wieferink, Alex Tkatchenko,
    Andrea Sanfilippo, Karsten Reuter, and Matthias Scheffler,
    "Resolution-of-identity approach to Hartree-Fock, hybrid density functionals,
     RPA, MP2, and GW with numeric atom-centered orbital basis functions"
    New Journal of Physics 14, 053020 (2012).
    http://dx.doi.org/10.1088/1367-2630/14/5/053020

  For the NAO-VCC-nZ basis sets used in this calculation, please cite:

    Igor Ying Zhang, Xinguo Ren, Patrick Rinke, Volker Blum, and Matthias Scheffler,
    "Numeric atom-centered-orbital basis sets with valence-correlation consistency from H to Ar"
    New Journal of Physics 15, 123033 (2013).
    http://dx.doi.org/10.1088/1367-2630/15/12/123033

  For the real-space grid partitioning and parallelization used in this calculation, please cite:

    Ville Havu, Volker Blum, Paula Havu, and Matthias Scheffler,
    "Efficient O(N) integration for all-electron electronic
    structure calculation using numerically tabulated basis functions"
    Journal of Computational Physics 228, 8367-8379 (2009).
    http://dx.doi.org/10.1016/j.jcp.2009.08.008

  Of course, there are many other important community references, e.g., those cited in the
  above references. Our list is limited to references that describe implementations in the FHI-aims
  code. The reason is purely practical (length of this list) - please credit others as well.

------------------------------------------------------------
          Leaving FHI-aims.
          Date     :  20140812, Time     :  111651.022

          Computational steps:
          | Number of self-consistency cycles          :           12

          Detailed time accounting                     :  max(cpu_time)    wall_clock(cpu1)
          | Total time                                 :       33.462 s          33.518 s
          | Preparation time                           :        0.204 s           0.215 s
          | Grid partitioning                          :        0.232 s           0.231 s
          | Preloading free-atom quantities on grid    :        0.072 s           0.071 s
          | Free-atom superposition energy             :        0.036 s           0.033 s
          | Total time for integrations                :        3.676 s           3.669 s
          | Product basis setup: Total time            :        0.000 s           0.000 s
          | Product basis: | 3-center integrations     :       22.789 s          22.837 s
          | Product basis: | 2-center integrations     :        0.296 s           0.295 s
          | Product basis: | 2-center linear algebra   :        0.068 s           0.070 s
          | Product basis: | 3-center x 2-center       :        0.024 s           0.023 s
          | Total time evaluating exchange matrix      :        0.168 s           0.158 s
          | Transforming ovlp_3fn to ovlp_3KS          :        0.012 s           0.010 s
          | Total time for solution of K.-S. equations :        0.044 s           0.020 s
          | Total time for density update              :        1.656 s           1.637 s
          | Total time for mixing                      :        0.272 s           0.259 s
          | Total time for Hartree multipole update    :        0.780 s           0.767 s
          | Total time for Hartree multipole sum       :        3.004 s           2.999 s
          | Total time for total energy evaluation     :        0.012 s           0.002 s

          Have a nice day.
------------------------------------------------------------
