  MPI-parallelism will be employed.
------------------------------------------------------------
          Invoking FHI-aims ...
          Version 072414
          Compiled on 2014/08/06 at 00:00:04 on host theobook58.

          When using FHI-aims, please cite the following reference:

          Volker Blum, Ralf Gehrke, Felix Hanke, Paula Havu,
          Ville Havu, Xinguo Ren, Karsten Reuter, and Matthias Scheffler,
          'Ab Initio Molecular Simulations with Numeric Atom-Centered Orbitals: FHI-aims',
          Computer Physics Communications 180, 2175-2196 (2009)

          For any questions about FHI-aims, please visit the aimsclub website
          with its forums and wiki. Contributions to both the forums and the
          wiki are warmly encouraged - they are for you, and everyone is welcome there.

------------------------------------------------------------

  Date     :  20140812, Time     :  111727.691
  Time zero on CPU 1             :   0.160000000000000E-01  s.
  Internal wall clock time zero  :           177074247.691  s.

  Using        4 parallel tasks.
  Task        0 on host theobook58 reporting.
  Task        1 on host theobook58 reporting.
  Task        2 on host theobook58 reporting.
  Task        3 on host theobook58 reporting.

  Performing system and environment tests:
  | Environment variable OMP_NUM_THREADS correctly set to 1.
  | Stacksize not measured: no C compiler
  | Checking for scalapack...
  | No scalapack compiled in.

  Obtaining array dimensions for all initial allocations:
  
  -----------------------------------------------------------------------
  Parsing control.in (first pass over file, find array dimensions only).
  The contents of control.in will be repeated verbatim below
  unless switched off by setting 'verbatim_writeout .false.' .
  in the first line of control.in .
  -----------------------------------------------------------------------
  
  xc                      hf
  total_energy_method     mp2
  relativistic            none
  occupation_type         integer 0.0001
  mixer                   pulay
  n_max_pulay             10
  charge_mix_param        0.6
  sc_iter_limit           600
  sc_accuracy_rho         1E-6
  sc_accuracy_eev         1E-4
  sc_accuracy_etot        1E-6
  override_illconditioning .true.
  charge                  0
  ################################################################################
  #
  #  FHI-aims code project
  # Igor Ying Zhang and Xinguo Ren, Fritz Haber Institute Berlin, 2012
  #
  #  Suggested "NAO-VCC-4Z" defaults for H atom (to be pasted into control.in file)
  #
  #  Please cite:
  #
  #  Igor Ying Zhang, Xinguo Ren, Patrick Rinke, Volker Blum, and Matthias Scheffler,
  #  "Numeric atom-centered-orbital basis sets with valence-correlation consistency from H to Ar"
  #  New Journal of Physics 15, 123033 (2013).
  #  http://dx.doi.org/10.1088/1367-2630/15/12/123033
  #
  ################################################################################
    species        H
  #     set basis set reference for FHI-aims output
      cite_reference NAO-VCC-2013
  #     global species definitions
      nucleus             1
      mass                1.00794
  #
      l_hartree           6
  #
      cut_pot             4.0  2.0  1.0
      basis_dep_cutoff    0e-4
  #
      radial_base         24 7.0
  radial_multiplier               6
      angular_grids       specified
        division   0.1930   50
        division   0.3175  110
        division   0.4293  194
        division   0.5066  302
        division   0.5626  434
        division   0.5922  590
  #      division   0.6227  974
  #      division   0.6868 1202
        outer_grid  770
  #      outer_grid  434
  ################################################################################
  #
  #  Definition of "minimal" basis
  #
  ################################################################################
  #     valence basis states
      valence      1  s   1.
  #     ion occupancy
      ion_occ      1  s   0.5
  ################################################################################
  
  
   basis_acc              1e-04
  #============================================
  # Optimization in      H for       NAO-VCC-4Z
  #============================================
  # (sp) correlation set
   hydro     1     s      1.15655525
   hydro     1     s      1.68684502
   hydro     1     s      2.46027686
   hydro     2     p      2.92145897
   hydro     2     p      4.14501835
   hydro     2     p      5.88102632
  # polarization set
   hydro     3     d      6.41446874
   hydro     3     d      7.67536483
   hydro     4     f     10.80870049
  # (sp) enhanced minimal set
   hydro     1     s      3.58833335
  
  -----------------------------------------------------------------------
  Completed first pass over input file control.in .
  -----------------------------------------------------------------------
  
  
  -----------------------------------------------------------------------
  Parsing geometry.in (first pass over file, find array dimensions only).
  The contents of geometry.in will be repeated verbatim below
  unless switched off by setting 'verbatim_writeout .false.' .
  in the first line of geometry.in .
  -----------------------------------------------------------------------
  
  atom             0.0             0.0             0.0    H
  atom             0.0             0.0             1.4    H
  
  -----------------------------------------------------------------------
  Completed first pass over input file geometry.in .
  -----------------------------------------------------------------------
  

  Basic array size parameters:
  | Number of species                 :        1
  | Number of atoms                   :        2
  | Max. basis fn. angular momentum   :        3
  | Max. atomic/ionic basis occupied n:        1
  | Max. number of basis fn. types    :        2
  | Max. radial fns per species/type  :       10
  | Max. logarithmic grid size        :     1131
  | Max. radial integration grid size :      149
  | Max. angular integration grid size:      770
  | Max. angular grid division number :        8
  | Radial grid for Hartree potential :     1131
  | Number of spin channels           :        1

------------------------------------------------------------
          Reading file control.in.
------------------------------------------------------------
 
  Hartree-Fock calculation starts ...... 
  Attention: this version of Hartree-Fock employs an auxiliary basis. 
 
  MP2 correlation energy calculation will be started after the DFT/HF calculation.
  Non-relativistic treatment of kinetic energy.
  Occupation type: Integer occupation.
  Using pulay charge density mixing.
  Pulay mixing - number of memorized iterations:   10
  Charge density mixing - mixing parameter:     0.6000
  Maximum number of s.-c. iterations  :   600
  Convergence accuracy of self-consistent charge density: 0.1000E-05
  Convergence accuracy of sum of eigenvalues: 0.1000E-03
  Convergence accuracy of total energy: 0.1000E-05
  override_illconditioning: Explicitly overriding any built-in checks for an ill-conditioned overlap matrix.
  *** WARNING: If you use this flag, you should really know what you are doing.
  *** DO NOT keep this flag set by default in all your control.in files.
  Charge =   0.000000E+00: Neutral system requested explicitly.
 
  Reading configuration options for species H                   .
  | Found nuclear charge :   1.0000
  | Found atomic mass :    1.00794000000000      amu
  | Found l_max for Hartree potential  :   6
  | Found cutoff potl. onset [A], width [A], scale factor :    4.00000    2.00000    1.00000
  | Threshold for basis-dependent cutoff potential is   0.000000E+00
  | Found data for basic radial integration grid :    24 points, outermost radius =    7.000 A
  | Found multiplier for basic radial grid :   6
  | Found angular grid specification: user-specified.
  | Specified grid contains     7 separate shells.
  | Check grid settings after all constraints further below.
  | Found free-atom valence shell :  1 s   1.000
  | No ionic wave fns used. Skipping ion_occ.
  | Found basis singularity cutoff : 0.1000E-03
  | Found hydrogenic basis function :  1 s   1.157
  | Found hydrogenic basis function :  1 s   1.687
  | Found hydrogenic basis function :  1 s   2.460
  | Found hydrogenic basis function :  2 p   2.921
  | Found hydrogenic basis function :  2 p   4.145
  | Found hydrogenic basis function :  2 p   5.881
  | Found hydrogenic basis function :  3 d   6.414
  | Found hydrogenic basis function :  3 d   7.675
  | Found hydrogenic basis function :  4 f  10.809
  | Found hydrogenic basis function :  1 s   3.588
  Species H                   : Missing cutoff potential type.
  Defaulting to exp(1/x)/(1-x)^2 type cutoff potential.
  Species H : No 'logarithmic' tag. Using default grid for free atom:
  | Default logarithmic grid data [bohr] : 0.1000E-03 0.1000E+03 0.1012E+01
  Species H                   : Using default innermost maximum threshold i_radial=  2 for radial functions.
  Species H                   : Default cutoff onset for free atom density etc. is infinite
  since the product basis is used (hybrid functionals, Hartree-Fock, GW etc.).
  Species H                   : Basic radial grid will be enhanced according to radial_multiplier =   6, to contain   149 grid points.
 
  Finished reading input file 'control.in'. Consistency checks are next.
 
  Species H: Using default value for prodbas_acc =   1.000000E-02.
  Species H: Using default value max_l_prodbas =     5.
  Target number of points in a grid batch is not set. Defaulting to  100
  Method for grid partitioning is not set. Defaulting to parallel hash+maxmin partitioning.
  Batch size limit is not set. Defaulting to    200
  By default, will store active basis functions for each batch.
  If in need of memory, prune_basis_once .false. can be used to disable this option.
  communication_type for Hartree potential was not specified.
  Defaulting to calc_hartree .
  Pulay mixer: Number of initial linear mixing iterations not set.
  Defaulting to    0 iterations.
  Work space size for distributed Hartree potential not set.
  Defaulting to   0.200000E+03 MB.
  Algorithm-dependent basis array size parameters:
  | n_max_pulay                         :       10
  Calculation of forces was not defined in control.in. No forces will be calculated.
  Geometry relaxation not requested: no relaxation will be performed.
  No accuracy limit for integral partition fn. given. Defaulting to 0.1000E-14.
  No threshold value for u(r) in integrations given. Defaulting to 0.1000E-05.
  No accuracy for occupation numbers given. Defaulting to 0.1000E-07.
  No threshold value for occupation numbers given. Defaulting to 0.0000E+00.
  No accuracy for fermi level given. Defaulting to 0.1000E-19.
  Maximum # of iterations to find E_F not set. Defaulting to  200.
  Preferred method for the eigenvalue solver ('KS_method') not specified in 'control.in'.
  Calling blacs routine to test compilation state
  The best choice would be 'elpa', but your version of FHI-aims is compiled without scalapack support.
  Defaulting to 'lapack_fast' instead (serial solution, time will not improve with more CPUs).
  Will not use alltoall communication since running on < 1024 CPUs.
  Threshold for basis singularities not set.
  Default threshold for basis singularities: 0.1000E-04
  partition_type (choice of integration weights) for integrals was not specified.
  | Using a version of the partition function of Stratmann and coworkers ('stratmann_smoother').
  | At each grid point, the set of atoms used to build the partition table is smoothly restricted to
  | only those atoms whose free-atom density would be non-zero at that grid point.
  Partitioning for Hartree potential was not defined. Using partition_type for integrals.
  | Adjusted default value of keyword multip_moments_threshold to:       0.10000000E-11
  | This value may affect high angular momentum components of the Hartree potential in periodic systems.
  Spin handling was not defined in control.in. Defaulting to unpolarized case.
  Threshold for auxiliary basis singularities not set.
  Default threshold for auxiliary basis singularities: 0.1000E-04
  No q(lm)/r^(l+1) cutoff set for long-range Hartree potential.
  | Using default value of  0.100000E-09 .
  | Verify using the multipole_threshold keyword.
  Defaulting to new monopole extrapolation.
  Density update method: automatic selection selected.
  Default to 1D ("use_logsbt") integrations for auxiliary 2-center integrals.
  Default onset of logarithmic r-grid for SBT is-38.000000000000
  Default onset of logarithmic k-grid for SBT is-25.000000000000
  Default range of logarithmic r- and k-grid for SBT is 45.000000000000
  Default number of logarithmic r- and k-grid for SBT is  4096
------------------------------------------------------------


------------------------------------------------------------
          Reading geometry description geometry.in.
------------------------------------------------------------
  Input structure read successfully.
  The structure contains        2 atoms,  and a total of          2.000 electrons.

  Input geometry:
  | No unit cell requested.
  | Atomic structure:
  |       Atom                x [A]            y [A]            z [A]
  |    1: Species H              0.000000         0.000000         0.000000
  |    2: Species H              0.000000         0.000000         1.400000
  |

  | The smallest distance between any two atoms is         1.40000000 AA.
  |
  | The first atom of this pair is atom number                      1 .
  | The second atom of this pair is atom number                     2 .

  Number of empty states per atom not set in control.in .
  | Since you are using a method that relies on the unoccupied spectrum
  | (MP2,GW,RPA et al.), will use the full Hamiltonian size (see below)
  | as the max. possible number of states (occupied plus empty).

  Structure-dependent array size parameters: 
  | Maximum number of distinct radial functions  :       11
  | Maximum number of basis functions            :       62
  | Number of Kohn-Sham states (occupied + empty):       62
------------------------------------------------------------

------------------------------------------------------------
          Preparing all fixed parts of the calculation.
------------------------------------------------------------
  Determining machine precision:
    2.225073858507201E-308
  Setting up grids for atomic and cluster calculations.

  Creating wave function, potential, and density for free atoms.

  Species: H

  List of occupied orbitals and eigenvalues:
    n    l              occ      energy [Ha]    energy [eV]
    1    0           1.0000        -0.233457        -6.3527

  Creating fixed part of basis set: Ionic, confined, hydrogenic.
 
  H                    hydrogenic:
 
  List of hydrogenic basis orbitals: 
    n    l      effective z      eigenvalue [eV]  inner max. [A]     outer max. [A]     outer radius [A]   
    1    0         1.156555       -18.1992           0.460320           0.460320           5.243229
    1    0         1.686845       -38.7143           0.315118           0.315118           4.932336
    1    0         2.460277       -82.3547           0.215718           0.215718           3.815562
    2    1         2.921459       -29.0309           0.723605           0.723605           5.243229
    2    1         4.145018       -58.4405           0.507614           0.507614           4.813203
    2    1         5.881026      -117.6432           0.360475           0.360475           3.678162
    3    2         6.414469       -62.2013           0.741515           0.741515           4.993004
    3    2         7.675365       -89.0587           0.617279           0.617279           4.583499
    4    3        10.808700       -99.3454           0.778676           0.778676           4.696947
    1    0         3.588333      -175.1887           0.147673           0.147673           2.644120
 

  Adding cutoff potential to free-atom effective potential.
  Creating atomic-like basis functions for current effective potential.

  Species H                   :

  List of atomic basis orbitals and eigenvalues:
    n    l      energy [Ha]    energy [eV]    outer radius [A]
    1    0        -0.233418        -6.3516       5.373006

  Assembling full basis from fixed parts.
  | Species H :   atomic orbital   1 s accepted.
  | Species H :    hydro orbital   1 s accepted.
  | Species H :    hydro orbital   1 s accepted.
  | Species H :    hydro orbital   1 s accepted.
  | Species H :    hydro orbital   1 s accepted.
  | Species H :    hydro orbital   2 p accepted.
  | Species H :    hydro orbital   2 p accepted.
  | Species H :    hydro orbital   2 p accepted.
  | Species H :    hydro orbital   3 d accepted.
  | Species H :    hydro orbital   3 d accepted.
  | Species H :    hydro orbital   4 f accepted.
 
  Basis size parameters after reduction:
  | Total number of radial functions:       11
  | Total number of basis functions :       62
 
  Testing on-site integration grid accuracy.
  |  Species  Function  <phi|h_atom|phi> (log., in eV)  <phi|h_atom|phi> (rad., in eV)
           1        1                 -6.3519216712                 -6.3519215989
           1        2                  8.4716038567                  8.4716058028
           1        3                 58.3749927434                 58.3750109815
           1        4                178.9024737125                178.9026031671
           1        5                456.3642310330                456.3649721232
           1        6                 16.2415699263                 16.2415699338
           1        7                 68.2932618880                 68.2932619123
           1        8                188.3801588017                188.3801587562
           1        9                 49.9849006789                 49.9849006869
           1       10                114.3821731125                114.3821730675
           1       11                 88.0899419283                 88.0899419237

  Preparing densities etc. for the partition functions (integrals / Hartree potential).

  Preparations completed.
  max(cpu_time)          :      0.168 s.
  Wall clock time (cpu1) :      0.189 s.
------------------------------------------------------------

------------------------------------------------------------
          Begin self-consistency loop: Initialization.

          Date     :  20140812, Time     :  111727.883
------------------------------------------------------------

  Initializing index lists of integration centers etc. from given atomic structure:
  | Number of centers in hartree potential         :         2
  | Number of centers in hartree multipole         :         2
  | Number of centers in electron density summation:         2
  | Number of centers in basis integrals           :         2
  | Number of centers in integrals                 :         2
  Partitioning the integration grid into batches with parallel hashing+maxmin method.
  | Number of batches:     1958
  | Maximal batch size:     150
  | Minimal batch size:      65
  | Average batch size:      73.751
  | Standard deviation of batch sizes:      15.167

  Integration load balanced across     4 MPI tasks.
  Work distribution over tasks is as follows:
  Task     0 has      36147 integration points.
  Task     1 has      36091 integration points.
  Task     2 has      36075 integration points.
  Task     3 has      36091 integration points.
  Initializing partition tables, free-atom densities, potentials, etc. across the integration grid (initialize_grid_storage).
  | Original list of interatomic distances with           2 x          2 entries is created.
  | Net number of integration points:   144404
  | of which are non-zero points    :   134768
  Obtaining max. number of non-zero basis functions in each batch (get_n_compute_maxes).
  | Maximal number of non-zero basis functions:       62 in task     0
  | Maximal number of non-zero basis functions:       62 in task     1
  | Maximal number of non-zero basis functions:       62 in task     2
  | Maximal number of non-zero basis functions:       62 in task     3
  Selecting the method for density update.
  Loop over occupied states selected for charge density update.
  Integrating Hamiltonian matrix: batch-based integration.
  Time summed over all CPUs for integration: real work        1.160 s, elapsed        1.194 s
  Integrating overlap matrix.
  Time summed over all CPUs for integration: real work        0.737 s, elapsed        0.746 s

  Updating Kohn-Sham eigenvalues, eigenvectors, occupation numbers, and Fermi level.
  Solving generalized eigenproblem
  Updating Kohn-Sham eigenvalues and eigenfunctions.
  Transforming overlap matrix and checking for singularities.
  Overlap matrix is nonsingular:
  | Lowest eigenvalue:  0.512583E-03
  Solving real generalised eigenvalue problem by standard LAPACK (fast)
  Determining occupation numbers for Kohn-Sham eigenstates.
  | Chemical potential (Fermi level) in eV                 : -.63463417E+01
  | Error in electron count due to remaining E_F inaccuracy: 0.00000000E+00
  | Maximum occupation number of highest empty state:  0.00E+00

  Writing Kohn-Sham eigenvalues.

  State    Occupation    Eigenvalue [Ha]    Eigenvalue [eV]
      1       2.00000          -0.338639           -9.21482
      2       0.00000          -0.127809           -3.47786
      3       0.00000           0.069977            1.90417
      4       0.00000           0.135266            3.68077
      5       0.00000           0.161686            4.39971
      6       0.00000           0.161686            4.39971
      7       0.00000           0.343076            9.33556
      8       0.00000           0.393305           10.70238
      9       0.00000           0.393305           10.70238
     10       0.00000           0.688377           18.73169
     11       0.00000           0.734168           19.97773
     12       0.00000           0.873559           23.77074
     13       0.00000           0.873559           23.77074
     14       0.00000           0.882640           24.01785
     15       0.00000           1.020448           27.76779
     16       0.00000           1.020448           27.76779
     17       0.00000           1.238629           33.70481
     18       0.00000           1.238629           33.70481
     19       0.00000           1.303095           35.45903
     20       0.00000           1.506814           41.00249
     21       0.00000           1.506814           41.00249
     22       0.00000           1.732600           47.14645
     23       0.00000           1.732600           47.14645
     24       0.00000           1.872683           50.95830
     25       0.00000           1.872683           50.95830
     26       0.00000           2.038447           55.46897
     27       0.00000           2.178856           59.28968
     28       0.00000           2.695071           73.33660
     29       0.00000           2.945569           80.15300
     30       0.00000           2.945569           80.15300
     31       0.00000           3.006938           81.82293
     32       0.00000           3.006938           81.82293
     33       0.00000           3.403376           92.61058
     34       0.00000           3.403376           92.61058
     35       0.00000           3.477425           94.62555
     36       0.00000           3.483519           94.79136
     37       0.00000           3.483519           94.79136
     38       0.00000           3.701563          100.72465
     39       0.00000           3.856883          104.95113
     40       0.00000           4.292006          116.79142
     41       0.00000           4.292006          116.79142
     42       0.00000           4.851422          132.01391
     43       0.00000           4.851422          132.01391
     44       0.00000           5.274014          143.51321
     45       0.00000           5.274014          143.51321
     46       0.00000           5.363425          145.94622
     47       0.00000           5.363425          145.94622
     48       0.00000           5.423924          147.59248
     49       0.00000           5.423924          147.59248
     50       0.00000           5.694171          154.94626
     51       0.00000           6.807539          185.24257
     52       0.00000           6.807539          185.24257
     53       0.00000           7.407109          201.55770
     54       0.00000           7.904770          215.09974
     55       0.00000           8.044099          218.89107
     56       0.00000           8.044099          218.89107
     57       0.00000           8.749064          238.07413
     58       0.00000           9.037246          245.91598
     59       0.00000           9.037246          245.91598
     60       0.00000          11.745281          319.60537
     61       0.00000          21.467014          584.14716
     62       0.00000          24.131935          656.66335

  Highest occupied state (VBM) at     -9.21482376 eV
  | Occupation number:      2.00000000

  Lowest unoccupied state (CBM) at    -3.47785969 eV
  | Occupation number:      0.00000000

  Overall HOMO-LUMO gap:      5.73696408 eV.
  Calculating total energy contributions from superposition of free atom densities.

  Total energy components:
  | Sum of eigenvalues            :          -0.67727710 Ha         -18.42964752 eV
  | XC energy correction          :          -0.49259870 Ha         -13.40429251 eV
  | XC potential correction       :           0.64221749 Ha          17.47562717 eV
  | Free-atom electrostatic energy:          -0.52920272 Ha         -14.40033862 eV
  | Hartree energy correction     :           0.00000000 Ha           0.00000000 eV
  | Entropy correction            :           0.00000000 Ha           0.00000000 eV
  | ---------------------------
  | Total energy                  :          -1.05686102 Ha         -28.75865148 eV
  | Total energy, T -> 0          :          -1.05686102 Ha         -28.75865148 eV  <-- do not rely on this value for anything but (periodic) metals
  | Electronic free energy        :          -1.05686102 Ha         -28.75865148 eV

  Derived energy quantities:
  | Kinetic energy                :           0.72400691 Ha          19.70123033 eV
  | Electrostatic energy          :          -1.28826923 Ha         -35.05558931 eV
  | Energy correction for multipole
  | error in Hartree potential    :           0.00000000 Ha           0.00000000 eV
  | Sum of eigenvalues per atom                           :          -9.21482376 eV
  | Total energy (T->0) per atom                          :         -14.37932574 eV  <-- do not rely on this value for anything but (periodic) metals
  | Electronic free energy per atom                       :         -14.37932574 eV
 
 --------------------------------------------
  Constructing auxiliary basis (full product) ...
 
  Product basis:
  | charge radius: extent of product basis function
  | field radius: extent of its Coulomb potential
  | Species   l  charge radius    field radius  multipol momen
  |    H      5     4.813203 A      4.813203 A  2.676041E-15 a.u.
  |    H      4     4.932336 A      4.932336 A  2.417679E-16 a.u.
  |    H      3     5.054418 A      5.054418 A  ************ a.u.
  |    H      4     5.054418 A      5.054418 A  ************ a.u.
  |    H      3     5.116587 A      5.116587 A  1.642688E-15 a.u.
  |    H      2     5.179521 A      5.179521 A  6.126280E-16 a.u.
  |    H      3     5.179521 A      5.179521 A  ************ a.u.
  |    H      2     5.243229 A      5.243229 A  1.485543E-16 a.u.
  |    H      2     5.243229 A      5.243229 A  1.683301E-16 a.u.
  |    H      2     5.243229 A      5.243229 A  ************ a.u.
  |    H      3     5.243229 A      5.243229 A  ************ a.u.
  |    H      1     5.307721 A      5.307721 A  2.416866E-16 a.u.
  |    H      1     5.307721 A      5.307721 A  1.291012E-16 a.u.
  |    H      2     5.307721 A      5.307721 A  7.871382E-16 a.u.
  |    H      0     5.373006 A      5.373006 A  9.519909E-17 a.u.
  |    H      1     5.373006 A      5.373006 A  2.334090E-16 a.u.
  |    H      1     5.373006 A      5.373006 A  ************ a.u.
  |    H      1     5.373006 A      5.373006 A  ************ a.u.
  |    H      1     5.373006 A      5.373006 A  1.823473E-16 a.u.
  |    H      0     5.373006 A      5.439094 A  ************ a.u.
  |    H      0     5.439094 A      5.439094 A  ************ a.u.
  |    H      0     5.439094 A      5.505995 A  9.305319E-17 a.u.
  |    H      0     5.439094 A      5.505995 A  4.082184E-17 a.u.
  |    H      0     5.439094 A      5.505995 A  3.169850E-16 a.u.
  |    H      0     5.439094 A      5.505995 A  2.711689E-16 a.u.
  |    H      5     4.872405 A  1.325110E+02 A           19.619780 a.u.
  |    H      4     5.054418 A  3.771796E+02 A           14.639479 a.u.
  |    H      3     5.243229 A  1.836978E+03 A           11.555842 a.u.
  |    H      2     5.307721 A  2.095310E+04 A            4.940052 a.u.
  |    H      1     5.373006 A  2.512347E+06 A            1.793689 a.u.
  |    H      0     5.439094 A  4.604132E+12 A            0.692368 a.u.

  | Shrink_full_auxil_basis : there are       31  radial auxiliary wave functions
                            accepted and      90 rejected.
  | Shrink_full_auxil_basis : there are totally     286 partial auxiliary wave functions.
 
  | Number of product basis functions per thread :    72
  | Minimal requirement for computer memories :           0.005 Gbs
 
  Basis pair condensation :      1953  -->       1953
 
 ----------------------------------------------------
  Integrating the 3-basis-function Coulomb matrix ...
  | i_atom:            1
  | i_atom:            2
  Integrating the Coulomb interaction matrix for auxiliary basis functions (by atoms)

  SBT integration errors (all should be 'small'):
  large logFT aliasing -> increase N/lnrange
  large SBT aliasing -> decrease lnk0 & increase lnk0+lnrange
  large SBT ringing -> decrease lnr0 & increase lnr0+lnrange
  |            El't  L: logFT-al.   small-k   large-k   small-r   large-r
  Atomic logSBT for 2-center Coulomb matrix    :  max(cpu_time)    wall_clock(cpu1)
  | Multiplication with kernel                 :        0.028 s           0.010 s
  | Main matrix multiplication                 :        0.060 s           0.045 s
  | Analytic angular integration               :        0.008 s           0.001 s
  | Kernel construction                        :        0.008 s           0.002 s
  | Overall 2-center overlap time              :        0.096 s           0.065 s

  Difference of Coulomb matrix to its transposed:  3.3307E-16
  Task     0: Eigenvalues of the Coulomb matrix range from    2.0000E+00 to    6.0071E-08.
  Task     0: Using      285   eigenvalues out of rank      286   Coulomb matrix (auxiliary basis).
  Task     0: Still using eigenvalue     2.2053E-05 while cutting     6.0071E-08 in Coulomb matrix.
 
  Multiplying V^-0.5 x ovlp_3fn (1d-scalapack)

  Initialize hartree_potential_storage
  Max. number of atoms included in rho_multipole:            2

  End scf initialization - timings             :  max(cpu_time)    wall_clock(cpu1)
  | Time for scf. initialization               :       24.094 s          24.119 s
  | Boundary condition initialization          :        0.000 s           0.001 s
  | Integration                                :        0.484 s           0.485 s
  | Solution of K.-S. eqns.                    :        0.008 s           0.006 s
  | Grid partitioning                          :        0.312 s           0.311 s
  | Preloading free-atom quantities on grid    :        0.112 s           0.112 s
  | Free-atom superposition energy             :        0.036 s           0.037 s
  | Total energy evaluation                    :        0.000 s           0.000 s
  | Product basis setup: Total time            :       23.065 s          23.089 s
  | Product basis: | 3-center integrations     :       22.601 s          22.629 s
  | Product basis: | 2-center integrations     :        0.256 s           0.252 s
  | Product basis: | 2-center linear algebra   :        0.072 s           0.071 s
  | Product basis: | 3-center x 2-center       :        0.032 s           0.029 s
------------------------------------------------------------

------------------------------------------------------------
          Begin self-consistency iteration #    1

  Date     :  20140812, Time     :  111752.003
------------------------------------------------------------
  Evaluating new KS density.
  Integration grid: deviation in total charge (<rho> - N_e) =   2.664535E-15
  Pulay mixing of updated and previous charge densities.

  Evaluating partitioned Hartree potential by multipole expansion.
  | Analytical far-field extrapolation by fixed multipoles:
  | Hartree multipole sum: apparent total charge =  -0.100751E-06
  Summing up the Hartree potential.
  Time summed over all CPUs for potential: real work        0.982 s, elapsed        0.986 s
  | RMS charge density error from multipole expansion :   0.308938E-03

  Integrating Hamiltonian matrix: batch-based integration.
  Time summed over all CPUs for integration: real work        1.092 s, elapsed        1.125 s
  Evaluating the exchange matrix ... 

  Updating Kohn-Sham eigenvalues, eigenvectors, occupation numbers, and Fermi level.
  Solving generalized eigenproblem
  Updating Kohn-Sham eigenvalues and eigenfunctions.
  Solving real generalised eigenvalue problem by standard LAPACK (fast)
  Determining occupation numbers for Kohn-Sham eigenstates.
  | Chemical potential (Fermi level) in eV                 : -.59096539E+01
  | Error in electron count due to remaining E_F inaccuracy: 0.00000000E+00
  | Maximum occupation number of highest empty state:  0.00E+00

  Writing Kohn-Sham eigenvalues.

  State    Occupation    Eigenvalue [Ha]    Eigenvalue [eV]
      1       2.00000          -0.471019          -12.81708
      2       0.00000           0.036667            0.99777
      3       0.00000           0.163405            4.44647
      4       0.00000           0.256275            6.97359
      5       0.00000           0.333557            9.07656
      6       0.00000           0.333557            9.07656
      7       0.00000           0.528543           14.38238
      8       0.00000           0.575137           15.65027
      9       0.00000           0.575137           15.65027
     10       0.00000           0.887735           24.15650
     11       0.00000           0.953796           25.95411
     12       0.00000           1.095691           29.81526
     13       0.00000           1.095691           29.81526
     14       0.00000           1.099525           29.91960
     15       0.00000           1.257660           34.22268
     16       0.00000           1.257660           34.22268
     17       0.00000           1.465525           39.87897
     18       0.00000           1.465525           39.87897
     19       0.00000           1.599958           43.53706
     20       0.00000           1.792255           48.76974
     21       0.00000           1.792255           48.76974
     22       0.00000           2.036056           55.40390
     23       0.00000           2.036056           55.40390
     24       0.00000           2.119490           57.67425
     25       0.00000           2.119490           57.67425
     26       0.00000           2.304930           62.72033
     27       0.00000           2.479486           67.47024
     28       0.00000           2.974962           80.95283
     29       0.00000           3.244591           88.28981
     30       0.00000           3.244591           88.28981
     31       0.00000           3.298275           89.75063
     32       0.00000           3.298275           89.75063
     33       0.00000           3.739272          101.75077
     34       0.00000           3.739272          101.75077
     35       0.00000           3.782754          102.93398
     36       0.00000           3.782754          102.93398
     37       0.00000           3.874143          105.42079
     38       0.00000           4.079907          111.01993
     39       0.00000           4.220837          114.85483
     40       0.00000           4.623917          125.82319
     41       0.00000           4.623917          125.82319
     42       0.00000           5.225343          142.18881
     43       0.00000           5.225343          142.18881
     44       0.00000           5.662613          154.08755
     45       0.00000           5.662613          154.08755
     46       0.00000           5.734833          156.05275
     47       0.00000           5.734833          156.05275
     48       0.00000           5.795994          157.71701
     49       0.00000           5.795994          157.71701
     50       0.00000           6.109761          166.25505
     51       0.00000           7.172965          195.18631
     52       0.00000           7.172965          195.18631
     53       0.00000           7.803959          212.35652
     54       0.00000           8.293257          225.67099
     55       0.00000           8.504190          231.41077
     56       0.00000           8.504190          231.41077
     57       0.00000           9.210232          250.62316
     58       0.00000           9.507079          258.70078
     59       0.00000           9.507079          258.70078
     60       0.00000          12.250236          333.34588
     61       0.00000          22.022964          599.27534
     62       0.00000          24.699240          672.10053

  Highest occupied state (VBM) at    -12.81708090 eV
  | Occupation number:      2.00000000

  Lowest unoccupied state (CBM) at     0.99777302 eV
  | Occupation number:      0.00000000

  Overall HOMO-LUMO gap:     13.81485392 eV.

  Total energy components:
  | Sum of eigenvalues            :          -0.94203813 Ha         -25.63416180 eV
  | XC energy correction          :           0.50589270 Ha          13.76604080 eV
  | XC potential correction       :           0.00000000 Ha           0.00000000 eV
  | Free-atom electrostatic energy:          -0.52920272 Ha         -14.40033862 eV
  | Hartree energy correction     :          -0.05984030 Ha          -1.62833730 eV
  | Entropy correction            :           0.00000000 Ha           0.00000000 eV
  | ---------------------------
  | Total energy                  :          -1.02518844 Ha         -27.89679692 eV
  | Total energy, T -> 0          :          -1.02518844 Ha         -27.89679692 eV  <-- do not rely on this value for anything but (periodic) metals
  | Electronic free energy        :          -1.02518844 Ha         -27.89679692 eV

  Derived energy quantities:
  | Kinetic energy                :           0.80174779 Ha          21.81666731 eV
  | Electrostatic energy          :          -1.32104353 Ha         -35.94742342 eV
  | Energy correction for multipole
  | error in Hartree potential    :          -0.00004058 Ha          -0.00110422 eV
  | Sum of eigenvalues per atom                           :         -12.81708090 eV
  | Total energy (T->0) per atom                          :         -13.94839846 eV  <-- do not rely on this value for anything but (periodic) metals
  | Electronic free energy per atom                       :         -13.94839846 eV

  Self-consistency convergence accuracy:
  | Change of charge density      : 0.5997E-01
  | Change of sum of eigenvalues  : -.7205E+01 eV
  | Change of total energy        : 0.8619E+00 eV

  End self-consistency iteration #     1       :  max(cpu_time)    wall_clock(cpu1)
  | Time for this iteration                    :        0.756 s           0.753 s
  | Charge density update                      :        0.140 s           0.139 s
  | Density mixing                             :        0.004 s           0.003 s
  | Hartree multipole update                   :        0.064 s           0.061 s
  | Hartree multipole summation                :        0.248 s           0.248 s
  | Integration                                :        0.284 s           0.281 s
  | Fock matrix evaluation                     :        0.020 s           0.018 s
  | Solution of K.-S. eqns.                    :        0.004 s           0.002 s
  | Total energy evaluation                    :        0.000 s           0.000 s
------------------------------------------------------------

------------------------------------------------------------
          Begin self-consistency iteration #    2

  Date     :  20140812, Time     :  111752.757
------------------------------------------------------------
  Evaluating new KS density.
  Integration grid: deviation in total charge (<rho> - N_e) =   8.437695E-15
  Pulay mixing of updated and previous charge densities.

  Evaluating partitioned Hartree potential by multipole expansion.
  | Analytical far-field extrapolation by fixed multipoles:
  | Hartree multipole sum: apparent total charge =  -0.110715E-06
  Summing up the Hartree potential.
  Time summed over all CPUs for potential: real work        1.012 s, elapsed        1.042 s
  | RMS charge density error from multipole expansion :   0.641506E-03

  Integrating Hamiltonian matrix: batch-based integration.
  Time summed over all CPUs for integration: real work        1.048 s, elapsed        1.057 s
  Evaluating the exchange matrix ... 

  Updating Kohn-Sham eigenvalues, eigenvectors, occupation numbers, and Fermi level.
  Solving generalized eigenproblem
  Updating Kohn-Sham eigenvalues and eigenfunctions.
  Solving real generalised eigenvalue problem by standard LAPACK (fast)
  Determining occupation numbers for Kohn-Sham eigenstates.
  | Chemical potential (Fermi level) in eV                 : -.55642785E+01
  | Error in electron count due to remaining E_F inaccuracy: 0.00000000E+00
  | Maximum occupation number of highest empty state:  0.00E+00

  Highest occupied state (VBM) at    -12.24946241 eV
  | Occupation number:      2.00000000

  Lowest unoccupied state (CBM) at     1.12090535 eV
  | Occupation number:      0.00000000

  Overall HOMO-LUMO gap:     13.37036776 eV.

  Total energy components:
  | Sum of eigenvalues            :          -0.90031894 Ha         -24.49892482 eV
  | XC energy correction          :           0.50327427 Ha          13.69478957 eV
  | XC potential correction       :           0.00000000 Ha           0.00000000 eV
  | Free-atom electrostatic energy:          -0.52920272 Ha         -14.40033862 eV
  | Hartree energy correction     :          -0.09736600 Ha          -2.64946359 eV
  | Entropy correction            :           0.00000000 Ha           0.00000000 eV
  | ---------------------------
  | Total energy                  :          -1.02361339 Ha         -27.85393747 eV
  | Total energy, T -> 0          :          -1.02361339 Ha         -27.85393747 eV  <-- do not rely on this value for anything but (periodic) metals
  | Electronic free energy        :          -1.02361339 Ha         -27.85393747 eV

  Derived energy quantities:
  | Kinetic energy                :           0.78500048 Ha          21.36094996 eV
  | Electrostatic energy          :          -1.30533960 Ha         -35.52009787 eV
  | Energy correction for multipole
  | error in Hartree potential    :          -0.00007176 Ha          -0.00195282 eV
  | Sum of eigenvalues per atom                           :         -12.24946241 eV
  | Total energy (T->0) per atom                          :         -13.92696874 eV  <-- do not rely on this value for anything but (periodic) metals
  | Electronic free energy per atom                       :         -13.92696874 eV

  Self-consistency convergence accuracy:
  | Change of charge density      : 0.3063E-01
  | Change of sum of eigenvalues  : 0.1135E+01 eV
  | Change of total energy        : 0.4286E-01 eV

  End self-consistency iteration #     2       :  max(cpu_time)    wall_clock(cpu1)
  | Time for this iteration                    :        0.780 s           0.779 s
  | Charge density update                      :        0.172 s           0.173 s
  | Density mixing                             :        0.004 s           0.004 s
  | Hartree multipole update                   :        0.064 s           0.062 s
  | Hartree multipole summation                :        0.264 s           0.262 s
  | Integration                                :        0.264 s           0.264 s
  | Fock matrix evaluation                     :        0.012 s           0.012 s
  | Solution of K.-S. eqns.                    :        0.004 s           0.001 s
  | Total energy evaluation                    :        0.000 s           0.000 s
------------------------------------------------------------

------------------------------------------------------------
          Begin self-consistency iteration #    3

  Date     :  20140812, Time     :  111753.536
------------------------------------------------------------
  Evaluating new KS density.
  Integration grid: deviation in total charge (<rho> - N_e) =  -1.776357E-15
  Pulay mixing of updated and previous charge densities.

  Evaluating partitioned Hartree potential by multipole expansion.
  | Analytical far-field extrapolation by fixed multipoles:
  | Hartree multipole sum: apparent total charge =  -0.106067E-06
  Summing up the Hartree potential.
  Time summed over all CPUs for potential: real work        0.987 s, elapsed        0.998 s
  | RMS charge density error from multipole expansion :   0.607133E-03

  Integrating Hamiltonian matrix: batch-based integration.
  Time summed over all CPUs for integration: real work        1.053 s, elapsed        1.066 s
  Evaluating the exchange matrix ... 

  Updating Kohn-Sham eigenvalues, eigenvectors, occupation numbers, and Fermi level.
  Solving generalized eigenproblem
  Updating Kohn-Sham eigenvalues and eigenfunctions.
  Solving real generalised eigenvalue problem by standard LAPACK (fast)
  Determining occupation numbers for Kohn-Sham eigenstates.
  | Chemical potential (Fermi level) in eV                 : -.56633697E+01
  | Error in electron count due to remaining E_F inaccuracy: 0.00000000E+00
  | Maximum occupation number of highest empty state:  0.00E+00

  Highest occupied state (VBM) at    -12.37704004 eV
  | Occupation number:      2.00000000

  Lowest unoccupied state (CBM) at     1.05030055 eV
  | Occupation number:      0.00000000

  Overall HOMO-LUMO gap:     13.42734059 eV.

  Total energy components:
  | Sum of eigenvalues            :          -0.90969572 Ha         -24.75408007 eV
  | XC energy correction          :           0.49681403 Ha          13.51899767 eV
  | XC potential correction       :           0.00000000 Ha           0.00000000 eV
  | Free-atom electrostatic energy:          -0.52920272 Ha         -14.40033862 eV
  | Hartree energy correction     :          -0.08309175 Ha          -2.26104152 eV
  | Entropy correction            :           0.00000000 Ha           0.00000000 eV
  | ---------------------------
  | Total energy                  :          -1.02517616 Ha         -27.89646254 eV
  | Total energy, T -> 0          :          -1.02517616 Ha         -27.89646254 eV  <-- do not rely on this value for anything but (periodic) metals
  | Electronic free energy        :          -1.02517616 Ha         -27.89646254 eV

  Derived energy quantities:
  | Kinetic energy                :           0.76935621 Ha          20.93524778 eV
  | Electrostatic energy          :          -1.29771834 Ha         -35.31271264 eV
  | Energy correction for multipole
  | error in Hartree potential    :          -0.00006087 Ha          -0.00165641 eV
  | Sum of eigenvalues per atom                           :         -12.37704004 eV
  | Total energy (T->0) per atom                          :         -13.94823127 eV  <-- do not rely on this value for anything but (periodic) metals
  | Electronic free energy per atom                       :         -13.94823127 eV

  Self-consistency convergence accuracy:
  | Change of charge density      : 0.7029E-02
  | Change of sum of eigenvalues  : -.2552E+00 eV
  | Change of total energy        : -.4253E-01 eV

  End self-consistency iteration #     3       :  max(cpu_time)    wall_clock(cpu1)
  | Time for this iteration                    :        0.732 s           0.733 s
  | Charge density update                      :        0.132 s           0.133 s
  | Density mixing                             :        0.008 s           0.007 s
  | Hartree multipole update                   :        0.064 s           0.062 s
  | Hartree multipole summation                :        0.252 s           0.250 s
  | Integration                                :        0.268 s           0.267 s
  | Fock matrix evaluation                     :        0.012 s           0.012 s
  | Solution of K.-S. eqns.                    :        0.004 s           0.001 s
  | Total energy evaluation                    :        0.000 s           0.001 s
------------------------------------------------------------

------------------------------------------------------------
          Begin self-consistency iteration #    4

  Date     :  20140812, Time     :  111754.269
------------------------------------------------------------
  Evaluating new KS density.
  Integration grid: deviation in total charge (<rho> - N_e) =   1.332268E-15
  Pulay mixing of updated and previous charge densities.

  Evaluating partitioned Hartree potential by multipole expansion.
  | Analytical far-field extrapolation by fixed multipoles:
  | Hartree multipole sum: apparent total charge =  -0.111734E-06
  Summing up the Hartree potential.
  Time summed over all CPUs for potential: real work        0.982 s, elapsed        0.991 s
  | RMS charge density error from multipole expansion :   0.650933E-03

  Integrating Hamiltonian matrix: batch-based integration.
  Time summed over all CPUs for integration: real work        1.121 s, elapsed        1.175 s
  Evaluating the exchange matrix ... 

  Updating Kohn-Sham eigenvalues, eigenvectors, occupation numbers, and Fermi level.
  Solving generalized eigenproblem
  Updating Kohn-Sham eigenvalues and eigenfunctions.
  Solving real generalised eigenvalue problem by standard LAPACK (fast)
  Determining occupation numbers for Kohn-Sham eigenstates.
  | Chemical potential (Fermi level) in eV                 : -.56752808E+01
  | Error in electron count due to remaining E_F inaccuracy: 0.00000000E+00
  | Maximum occupation number of highest empty state:  0.00E+00

  Highest occupied state (VBM) at    -12.36441907 eV
  | Occupation number:      2.00000000

  Lowest unoccupied state (CBM) at     1.01385744 eV
  | Occupation number:      0.00000000

  Overall HOMO-LUMO gap:     13.37827650 eV.

  Total energy components:
  | Sum of eigenvalues            :          -0.90876810 Ha         -24.72883813 eV
  | XC energy correction          :           0.49436585 Ha          13.45237916 eV
  | XC potential correction       :           0.00000000 Ha           0.00000000 eV
  | Free-atom electrostatic energy:          -0.52920272 Ha         -14.40033862 eV
  | Hartree energy correction     :          -0.07939268 Ha          -2.16038461 eV
  | Entropy correction            :           0.00000000 Ha           0.00000000 eV
  | ---------------------------
  | Total energy                  :          -1.02299764 Ha         -27.83718221 eV
  | Total energy, T -> 0          :          -1.02299764 Ha         -27.83718221 eV  <-- do not rely on this value for anything but (periodic) metals
  | Electronic free energy        :          -1.02299764 Ha         -27.83718221 eV

  Derived energy quantities:
  | Kinetic energy                :           0.75860842 Ha          20.64278527 eV
  | Electrostatic energy          :          -1.28724021 Ha         -35.02758831 eV
  | Energy correction for multipole
  | error in Hartree potential    :          -0.00005788 Ha          -0.00157512 eV
  | Sum of eigenvalues per atom                           :         -12.36441907 eV
  | Total energy (T->0) per atom                          :         -13.91859110 eV  <-- do not rely on this value for anything but (periodic) metals
  | Electronic free energy per atom                       :         -13.91859110 eV

  Self-consistency convergence accuracy:
  | Change of charge density      : 0.3588E-02
  | Change of sum of eigenvalues  : 0.2524E-01 eV
  | Change of total energy        : 0.5928E-01 eV

  End self-consistency iteration #     4       :  max(cpu_time)    wall_clock(cpu1)
  | Time for this iteration                    :        0.776 s           0.774 s
  | Charge density update                      :        0.136 s           0.136 s
  | Density mixing                             :        0.012 s           0.011 s
  | Hartree multipole update                   :        0.064 s           0.061 s
  | Hartree multipole summation                :        0.248 s           0.249 s
  | Integration                                :        0.296 s           0.294 s
  | Fock matrix evaluation                     :        0.020 s           0.020 s
  | Solution of K.-S. eqns.                    :        0.004 s           0.001 s
  | Total energy evaluation                    :        0.004 s           0.000 s
------------------------------------------------------------

------------------------------------------------------------
          Begin self-consistency iteration #    5

  Date     :  20140812, Time     :  111755.043
------------------------------------------------------------
  Evaluating new KS density.
  Integration grid: deviation in total charge (<rho> - N_e) =   5.329071E-15
  Pulay mixing of updated and previous charge densities.

  Evaluating partitioned Hartree potential by multipole expansion.
  | Analytical far-field extrapolation by fixed multipoles:
  | Hartree multipole sum: apparent total charge =  -0.112002E-06
  Summing up the Hartree potential.
  Time summed over all CPUs for potential: real work        1.012 s, elapsed        1.063 s
  | RMS charge density error from multipole expansion :   0.650805E-03

  Integrating Hamiltonian matrix: batch-based integration.
  Time summed over all CPUs for integration: real work        1.059 s, elapsed        1.069 s
  Evaluating the exchange matrix ... 

  Updating Kohn-Sham eigenvalues, eigenvectors, occupation numbers, and Fermi level.
  Solving generalized eigenproblem
  Updating Kohn-Sham eigenvalues and eigenfunctions.
  Solving real generalised eigenvalue problem by standard LAPACK (fast)
  Determining occupation numbers for Kohn-Sham eigenstates.
  | Chemical potential (Fermi level) in eV                 : -.56799413E+01
  | Error in electron count due to remaining E_F inaccuracy: 0.00000000E+00
  | Maximum occupation number of highest empty state:  0.00E+00

  Highest occupied state (VBM) at    -12.36678685 eV
  | Occupation number:      2.00000000

  Lowest unoccupied state (CBM) at     1.00690420 eV
  | Occupation number:      0.00000000

  Overall HOMO-LUMO gap:     13.37369105 eV.

  Total energy components:
  | Sum of eigenvalues            :          -0.90894213 Ha         -24.73357370 eV
  | XC energy correction          :           0.49301703 Ha          13.41567593 eV
  | XC potential correction       :           0.00000000 Ha           0.00000000 eV
  | Free-atom electrostatic energy:          -0.52920272 Ha         -14.40033862 eV
  | Hartree energy correction     :          -0.07850766 Ha          -2.13630204 eV
  | Entropy correction            :           0.00000000 Ha           0.00000000 eV
  | ---------------------------
  | Total energy                  :          -1.02363547 Ha         -27.85453843 eV
  | Total energy, T -> 0          :          -1.02363547 Ha         -27.85453843 eV  <-- do not rely on this value for anything but (periodic) metals
  | Electronic free energy        :          -1.02363547 Ha         -27.85453843 eV

  Derived energy quantities:
  | Kinetic energy                :           0.75557430 Ha          20.56022269 eV
  | Electrostatic energy          :          -1.28619274 Ha         -34.99908519 eV
  | Energy correction for multipole
  | error in Hartree potential    :          -0.00005657 Ha          -0.00153930 eV
  | Sum of eigenvalues per atom                           :         -12.36678685 eV
  | Total energy (T->0) per atom                          :         -13.92726922 eV  <-- do not rely on this value for anything but (periodic) metals
  | Electronic free energy per atom                       :         -13.92726922 eV

  Self-consistency convergence accuracy:
  | Change of charge density      : 0.3778E-03
  | Change of sum of eigenvalues  : -.4736E-02 eV
  | Change of total energy        : -.1736E-01 eV

  End self-consistency iteration #     5       :  max(cpu_time)    wall_clock(cpu1)
  | Time for this iteration                    :        0.856 s           0.855 s
  | Charge density update                      :        0.192 s           0.191 s
  | Density mixing                             :        0.024 s           0.021 s
  | Hartree multipole update                   :        0.092 s           0.093 s
  | Hartree multipole summation                :        0.268 s           0.267 s
  | Integration                                :        0.268 s           0.267 s
  | Fock matrix evaluation                     :        0.016 s           0.014 s
  | Solution of K.-S. eqns.                    :        0.000 s           0.001 s
  | Total energy evaluation                    :        0.000 s           0.000 s
------------------------------------------------------------

------------------------------------------------------------
          Begin self-consistency iteration #    6

  Date     :  20140812, Time     :  111755.898
------------------------------------------------------------
  Evaluating new KS density.
  Integration grid: deviation in total charge (<rho> - N_e) =  -3.774758E-15
  Pulay mixing of updated and previous charge densities.

  Evaluating partitioned Hartree potential by multipole expansion.
  | Analytical far-field extrapolation by fixed multipoles:
  | Hartree multipole sum: apparent total charge =  -0.112196E-06
  Summing up the Hartree potential.
  Time summed over all CPUs for potential: real work        0.988 s, elapsed        1.008 s
  | RMS charge density error from multipole expansion :   0.652650E-03

  Integrating Hamiltonian matrix: batch-based integration.
  Time summed over all CPUs for integration: real work        1.051 s, elapsed        1.057 s
  Evaluating the exchange matrix ... 

  Updating Kohn-Sham eigenvalues, eigenvectors, occupation numbers, and Fermi level.
  Solving generalized eigenproblem
  Updating Kohn-Sham eigenvalues and eigenfunctions.
  Solving real generalised eigenvalue problem by standard LAPACK (fast)
  Determining occupation numbers for Kohn-Sham eigenstates.
  | Chemical potential (Fermi level) in eV                 : -.56794989E+01
  | Error in electron count due to remaining E_F inaccuracy: 0.00000000E+00
  | Maximum occupation number of highest empty state:  0.00E+00

  Highest occupied state (VBM) at    -12.36569574 eV
  | Occupation number:      2.00000000

  Lowest unoccupied state (CBM) at     1.00669804 eV
  | Occupation number:      0.00000000

  Overall HOMO-LUMO gap:     13.37239378 eV.

  Total energy components:
  | Sum of eigenvalues            :          -0.90886193 Ha         -24.73139148 eV
  | XC energy correction          :           0.49288177 Ha          13.41199537 eV
  | XC potential correction       :           0.00000000 Ha           0.00000000 eV
  | Free-atom electrostatic energy:          -0.52920272 Ha         -14.40033862 eV
  | Hartree energy correction     :          -0.07853811 Ha          -2.13713063 eV
  | Entropy correction            :           0.00000000 Ha           0.00000000 eV
  | ---------------------------
  | Total energy                  :          -1.02372099 Ha         -27.85686536 eV
  | Total energy, T -> 0          :          -1.02372099 Ha         -27.85686536 eV  <-- do not rely on this value for anything but (periodic) metals
  | Electronic free energy        :          -1.02372099 Ha         -27.85686536 eV

  Derived energy quantities:
  | Kinetic energy                :           0.75512047 Ha          20.54787358 eV
  | Electrostatic energy          :          -1.28595969 Ha         -34.99274358 eV
  | Energy correction for multipole
  | error in Hartree potential    :          -0.00005666 Ha          -0.00154193 eV
  | Sum of eigenvalues per atom                           :         -12.36569574 eV
  | Total energy (T->0) per atom                          :         -13.92843268 eV  <-- do not rely on this value for anything but (periodic) metals
  | Electronic free energy per atom                       :         -13.92843268 eV

  Self-consistency convergence accuracy:
  | Change of charge density      : 0.9510E-04
  | Change of sum of eigenvalues  : 0.2182E-02 eV
  | Change of total energy        : -.2327E-02 eV

  End self-consistency iteration #     6       :  max(cpu_time)    wall_clock(cpu1)
  | Time for this iteration                    :        0.744 s           0.745 s
  | Charge density update                      :        0.136 s           0.134 s
  | Density mixing                             :        0.020 s           0.019 s
  | Hartree multipole update                   :        0.064 s           0.061 s
  | Hartree multipole summation                :        0.256 s           0.253 s
  | Integration                                :        0.264 s           0.264 s
  | Fock matrix evaluation                     :        0.012 s           0.012 s
  | Solution of K.-S. eqns.                    :        0.004 s           0.002 s
  | Total energy evaluation                    :        0.000 s           0.000 s
------------------------------------------------------------

------------------------------------------------------------
          Begin self-consistency iteration #    7

  Date     :  20140812, Time     :  111756.643
------------------------------------------------------------
  Evaluating new KS density.
  Integration grid: deviation in total charge (<rho> - N_e) =  -3.552714E-15
  Pulay mixing of updated and previous charge densities.

  Evaluating partitioned Hartree potential by multipole expansion.
  | Analytical far-field extrapolation by fixed multipoles:
  | Hartree multipole sum: apparent total charge =  -0.112181E-06
  Summing up the Hartree potential.
  Time summed over all CPUs for potential: real work        0.985 s, elapsed        0.996 s
  | RMS charge density error from multipole expansion :   0.652464E-03

  Integrating Hamiltonian matrix: batch-based integration.
  Time summed over all CPUs for integration: real work        1.051 s, elapsed        1.061 s
  Evaluating the exchange matrix ... 

  Updating Kohn-Sham eigenvalues, eigenvectors, occupation numbers, and Fermi level.
  Solving generalized eigenproblem
  Updating Kohn-Sham eigenvalues and eigenfunctions.
  Solving real generalised eigenvalue problem by standard LAPACK (fast)
  Determining occupation numbers for Kohn-Sham eigenstates.
  | Chemical potential (Fermi level) in eV                 : -.56797140E+01
  | Error in electron count due to remaining E_F inaccuracy: 0.00000000E+00
  | Maximum occupation number of highest empty state:  0.00E+00

  Highest occupied state (VBM) at    -12.36595914 eV
  | Occupation number:      2.00000000

  Lowest unoccupied state (CBM) at     1.00653120 eV
  | Occupation number:      0.00000000

  Overall HOMO-LUMO gap:     13.37249033 eV.

  Total energy components:
  | Sum of eigenvalues            :          -0.90888129 Ha         -24.73191827 eV
  | XC energy correction          :           0.49285626 Ha          13.41130116 eV
  | XC potential correction       :           0.00000000 Ha           0.00000000 eV
  | Free-atom electrostatic energy:          -0.52920272 Ha         -14.40033862 eV
  | Hartree energy correction     :          -0.07851373 Ha          -2.13646732 eV
  | Entropy correction            :           0.00000000 Ha           0.00000000 eV
  | ---------------------------
  | Total energy                  :          -1.02374148 Ha         -27.85742306 eV
  | Total energy, T -> 0          :          -1.02374148 Ha         -27.85742306 eV  <-- do not rely on this value for anything but (periodic) metals
  | Electronic free energy        :          -1.02374148 Ha         -27.85742306 eV

  Derived energy quantities:
  | Kinetic energy                :           0.75507096 Ha          20.54652611 eV
  | Electrostatic energy          :          -1.28595618 Ha         -34.99264801 eV
  | Energy correction for multipole
  | error in Hartree potential    :          -0.00005661 Ha          -0.00154043 eV
  | Sum of eigenvalues per atom                           :         -12.36595914 eV
  | Total energy (T->0) per atom                          :         -13.92871153 eV  <-- do not rely on this value for anything but (periodic) metals
  | Electronic free energy per atom                       :         -13.92871153 eV

  Self-consistency convergence accuracy:
  | Change of charge density      : 0.6234E-05
  | Change of sum of eigenvalues  : -.5268E-03 eV
  | Change of total energy        : -.5577E-03 eV

  End self-consistency iteration #     7       :  max(cpu_time)    wall_clock(cpu1)
  | Time for this iteration                    :        0.752 s           0.750 s
  | Charge density update                      :        0.132 s           0.132 s
  | Density mixing                             :        0.024 s           0.024 s
  | Hartree multipole update                   :        0.064 s           0.064 s
  | Hartree multipole summation                :        0.252 s           0.250 s
  | Integration                                :        0.268 s           0.266 s
  | Fock matrix evaluation                     :        0.012 s           0.012 s
  | Solution of K.-S. eqns.                    :        0.004 s           0.001 s
  | Total energy evaluation                    :        0.004 s           0.000 s
------------------------------------------------------------

------------------------------------------------------------
          Begin self-consistency iteration #    8

  Date     :  20140812, Time     :  111757.393
------------------------------------------------------------
  Evaluating new KS density.
  Integration grid: deviation in total charge (<rho> - N_e) =  -1.110223E-14
  Pulay mixing of updated and previous charge densities.

  Evaluating partitioned Hartree potential by multipole expansion.
  | Analytical far-field extrapolation by fixed multipoles:
  | Hartree multipole sum: apparent total charge =  -0.112179E-06
  Summing up the Hartree potential.
  Time summed over all CPUs for potential: real work        0.980 s, elapsed        0.984 s
  | RMS charge density error from multipole expansion :   0.652464E-03

  Integrating Hamiltonian matrix: batch-based integration.
  Time summed over all CPUs for integration: real work        1.068 s, elapsed        1.081 s
  Evaluating the exchange matrix ... 

  Updating Kohn-Sham eigenvalues, eigenvectors, occupation numbers, and Fermi level.
  Solving generalized eigenproblem
  Updating Kohn-Sham eigenvalues and eigenfunctions.
  Solving real generalised eigenvalue problem by standard LAPACK (fast)
  Determining occupation numbers for Kohn-Sham eigenstates.
  | Chemical potential (Fermi level) in eV                 : -.56796936E+01
  | Error in electron count due to remaining E_F inaccuracy: 0.00000000E+00
  | Maximum occupation number of highest empty state:  0.00E+00

  Highest occupied state (VBM) at    -12.36594135 eV
  | Occupation number:      2.00000000

  Lowest unoccupied state (CBM) at     1.00655421 eV
  | Occupation number:      0.00000000

  Overall HOMO-LUMO gap:     13.37249556 eV.

  Total energy components:
  | Sum of eigenvalues            :          -0.90887998 Ha         -24.73188271 eV
  | XC energy correction          :           0.49285599 Ha          13.41129391 eV
  | XC potential correction       :           0.00000000 Ha           0.00000000 eV
  | Free-atom electrostatic energy:          -0.52920272 Ha         -14.40033862 eV
  | Hartree energy correction     :          -0.07851628 Ha          -2.13653668 eV
  | Entropy correction            :           0.00000000 Ha           0.00000000 eV
  | ---------------------------
  | Total energy                  :          -1.02374299 Ha         -27.85746410 eV
  | Total energy, T -> 0          :          -1.02374299 Ha         -27.85746410 eV  <-- do not rely on this value for anything but (periodic) metals
  | Electronic free energy        :          -1.02374299 Ha         -27.85746410 eV

  Derived energy quantities:
  | Kinetic energy                :           0.75507271 Ha          20.54657387 eV
  | Electrostatic energy          :          -1.28595971 Ha         -34.99274406 eV
  | Energy correction for multipole
  | error in Hartree potential    :          -0.00005661 Ha          -0.00154048 eV
  | Sum of eigenvalues per atom                           :         -12.36594135 eV
  | Total energy (T->0) per atom                          :         -13.92873205 eV  <-- do not rely on this value for anything but (periodic) metals
  | Electronic free energy per atom                       :         -13.92873205 eV

  Self-consistency convergence accuracy:
  | Change of charge density      : 0.9804E-06
  | Change of sum of eigenvalues  : 0.3556E-04 eV
  | Change of total energy        : -.4105E-04 eV

  End self-consistency iteration #     8       :  max(cpu_time)    wall_clock(cpu1)
  | Time for this iteration                    :        0.756 s           0.755 s
  | Charge density update                      :        0.132 s           0.132 s
  | Density mixing                             :        0.028 s           0.028 s
  | Hartree multipole update                   :        0.064 s           0.062 s
  | Hartree multipole summation                :        0.248 s           0.248 s
  | Integration                                :        0.272 s           0.270 s
  | Fock matrix evaluation                     :        0.016 s           0.013 s
  | Solution of K.-S. eqns.                    :        0.004 s           0.001 s
  | Total energy evaluation                    :        0.000 s           0.001 s
------------------------------------------------------------

------------------------------------------------------------
          Begin self-consistency iteration #    9

  Date     :  20140812, Time     :  111758.148
------------------------------------------------------------
  Evaluating new KS density.
  Integration grid: deviation in total charge (<rho> - N_e) =   2.220446E-15
  Pulay mixing of updated and previous charge densities.

  Evaluating partitioned Hartree potential by multipole expansion.
  | Analytical far-field extrapolation by fixed multipoles:
  | Hartree multipole sum: apparent total charge =  -0.112179E-06
  Summing up the Hartree potential.
  Time summed over all CPUs for potential: real work        0.979 s, elapsed        0.990 s
  | RMS charge density error from multipole expansion :   0.652463E-03

  Integrating Hamiltonian matrix: batch-based integration.
  Time summed over all CPUs for integration: real work        1.053 s, elapsed        1.076 s
  Evaluating the exchange matrix ... 

  Updating Kohn-Sham eigenvalues, eigenvectors, occupation numbers, and Fermi level.
  Solving generalized eigenproblem
  Updating Kohn-Sham eigenvalues and eigenfunctions.
  Solving real generalised eigenvalue problem by standard LAPACK (fast)
  Determining occupation numbers for Kohn-Sham eigenstates.
  | Chemical potential (Fermi level) in eV                 : -.56796949E+01
  | Error in electron count due to remaining E_F inaccuracy: 0.00000000E+00
  | Maximum occupation number of highest empty state:  0.00E+00

  Highest occupied state (VBM) at    -12.36594365 eV
  | Occupation number:      2.00000000

  Lowest unoccupied state (CBM) at     1.00655383 eV
  | Occupation number:      0.00000000

  Overall HOMO-LUMO gap:     13.37249748 eV.

  Total energy components:
  | Sum of eigenvalues            :          -0.90888015 Ha         -24.73188730 eV
  | XC energy correction          :           0.49285643 Ha          13.41130592 eV
  | XC potential correction       :           0.00000000 Ha           0.00000000 eV
  | Free-atom electrostatic energy:          -0.52920272 Ha         -14.40033862 eV
  | Hartree energy correction     :          -0.07851618 Ha          -2.13653388 eV
  | Entropy correction            :           0.00000000 Ha           0.00000000 eV
  | ---------------------------
  | Total energy                  :          -1.02374261 Ha         -27.85745388 eV
  | Total energy, T -> 0          :          -1.02374261 Ha         -27.85745388 eV  <-- do not rely on this value for anything but (periodic) metals
  | Electronic free energy        :          -1.02374261 Ha         -27.85745388 eV

  Derived energy quantities:
  | Kinetic energy                :           0.75507362 Ha          20.54659851 eV
  | Electrostatic energy          :          -1.28595980 Ha         -34.99274646 eV
  | Energy correction for multipole
  | error in Hartree potential    :          -0.00005661 Ha          -0.00154048 eV
  | Sum of eigenvalues per atom                           :         -12.36594365 eV
  | Total energy (T->0) per atom                          :         -13.92872694 eV  <-- do not rely on this value for anything but (periodic) metals
  | Electronic free energy per atom                       :         -13.92872694 eV

  Self-consistency convergence accuracy:
  | Change of charge density      : 0.1253E-06
  | Change of sum of eigenvalues  : -.4595E-05 eV
  | Change of total energy        : 0.1023E-04 eV

  End self-consistency iteration #     9       :  max(cpu_time)    wall_clock(cpu1)
  | Time for this iteration                    :        0.760 s           0.759 s
  | Charge density update                      :        0.136 s           0.135 s
  | Density mixing                             :        0.032 s           0.031 s
  | Hartree multipole update                   :        0.064 s           0.060 s
  | Hartree multipole summation                :        0.252 s           0.249 s
  | Integration                                :        0.268 s           0.269 s
  | Fock matrix evaluation                     :        0.016 s           0.013 s
  | Solution of K.-S. eqns.                    :        0.000 s           0.001 s
  | Total energy evaluation                    :        0.000 s           0.000 s
------------------------------------------------------------

------------------------------------------------------------
          Begin self-consistency iteration #   10

  Date     :  20140812, Time     :  111758.907
------------------------------------------------------------
  Evaluating new KS density.
  Integration grid: deviation in total charge (<rho> - N_e) =   7.105427E-15
  Pulay mixing of updated and previous charge densities.

  Evaluating partitioned Hartree potential by multipole expansion.
  | Analytical far-field extrapolation by fixed multipoles:
  | Hartree multipole sum: apparent total charge =  -0.112179E-06
  Summing up the Hartree potential.
  Time summed over all CPUs for potential: real work        0.989 s, elapsed        1.003 s
  | RMS charge density error from multipole expansion :   0.652463E-03

  Integrating Hamiltonian matrix: batch-based integration.
  Time summed over all CPUs for integration: real work        1.045 s, elapsed        1.056 s
  Evaluating the exchange matrix ... 

  Updating Kohn-Sham eigenvalues, eigenvectors, occupation numbers, and Fermi level.
  Solving generalized eigenproblem
  Updating Kohn-Sham eigenvalues and eigenfunctions.
  Solving real generalised eigenvalue problem by standard LAPACK (fast)
  Determining occupation numbers for Kohn-Sham eigenstates.
  | Chemical potential (Fermi level) in eV                 : -.56796940E+01
  | Error in electron count due to remaining E_F inaccuracy: 0.00000000E+00
  | Maximum occupation number of highest empty state:  0.00E+00

  Highest occupied state (VBM) at    -12.36594347 eV
  | Occupation number:      2.00000000

  Lowest unoccupied state (CBM) at     1.00655556 eV
  | Occupation number:      0.00000000

  Overall HOMO-LUMO gap:     13.37249904 eV.

  Total energy components:
  | Sum of eigenvalues            :          -0.90888014 Ha         -24.73188695 eV
  | XC energy correction          :           0.49285655 Ha          13.41130903 eV
  | XC potential correction       :           0.00000000 Ha           0.00000000 eV
  | Free-atom electrostatic energy:          -0.52920272 Ha         -14.40033862 eV
  | Hartree energy correction     :          -0.07851640 Ha          -2.13653989 eV
  | Entropy correction            :           0.00000000 Ha           0.00000000 eV
  | ---------------------------
  | Total energy                  :          -1.02374271 Ha         -27.85745643 eV
  | Total energy, T -> 0          :          -1.02374271 Ha         -27.85745643 eV  <-- do not rely on this value for anything but (periodic) metals
  | Electronic free energy        :          -1.02374271 Ha         -27.85745643 eV

  Derived energy quantities:
  | Kinetic energy                :           0.75507390 Ha          20.54660609 eV
  | Electrostatic energy          :          -1.28596005 Ha         -34.99275349 eV
  | Energy correction for multipole
  | error in Hartree potential    :          -0.00005661 Ha          -0.00154048 eV
  | Sum of eigenvalues per atom                           :         -12.36594347 eV
  | Total energy (T->0) per atom                          :         -13.92872821 eV  <-- do not rely on this value for anything but (periodic) metals
  | Electronic free energy per atom                       :         -13.92872821 eV

  Self-consistency convergence accuracy:
  | Change of charge density      : 0.6965E-07
  | Change of sum of eigenvalues  : 0.3567E-06 eV
  | Change of total energy        : -.2549E-05 eV

  End self-consistency iteration #    10       :  max(cpu_time)    wall_clock(cpu1)
  | Time for this iteration                    :        0.760 s           0.760 s
  | Charge density update                      :        0.132 s           0.133 s
  | Density mixing                             :        0.036 s           0.035 s
  | Hartree multipole update                   :        0.064 s           0.061 s
  | Hartree multipole summation                :        0.252 s           0.252 s
  | Integration                                :        0.264 s           0.265 s
  | Fock matrix evaluation                     :        0.012 s           0.012 s
  | Solution of K.-S. eqns.                    :        0.004 s           0.001 s
  | Total energy evaluation                    :        0.004 s           0.000 s
------------------------------------------------------------

------------------------------------------------------------
          Begin self-consistency iteration #   11

  Date     :  20140812, Time     :  111759.667
------------------------------------------------------------
  Evaluating new KS density.
  Integration grid: deviation in total charge (<rho> - N_e) =  -1.776357E-15
  Pulay mixing of updated and previous charge densities.

[...]

  Integrating Hamiltonian matrix: batch-based integration.
  Time summed over all CPUs for integration: real work        1.060 s, elapsed        1.085 s
  Evaluating the exchange matrix ... 

  Updating Kohn-Sham eigenvalues, eigenvectors, occupation numbers, and Fermi level.
  Solving generalized eigenproblem
  Updating Kohn-Sham eigenvalues and eigenfunctions.
  Solving real generalised eigenvalue problem by standard LAPACK (fast)
  Determining occupation numbers for Kohn-Sham eigenstates.
  | Chemical potential (Fermi level) in eV                 : -.56796939E+01
  | Error in electron count due to remaining E_F inaccuracy: 0.00000000E+00
  | Maximum occupation number of highest empty state:  0.00E+00

  Highest occupied state (VBM) at    -12.36594336 eV
  | Occupation number:      2.00000000

  Lowest unoccupied state (CBM) at     1.00655561 eV
  | Occupation number:      0.00000000

  Overall HOMO-LUMO gap:     13.37249897 eV.

  Total energy components:
  | Sum of eigenvalues            :          -0.90888013 Ha         -24.73188672 eV
  | XC energy correction          :           0.49285657 Ha          13.41130972 eV
  | XC potential correction       :           0.00000000 Ha           0.00000000 eV
  | Free-atom electrostatic energy:          -0.52920272 Ha         -14.40033862 eV
  | Hartree energy correction     :          -0.07851640 Ha          -2.13654003 eV
  | Entropy correction            :           0.00000000 Ha           0.00000000 eV
  | ---------------------------
  | Total energy                  :          -1.02374268 Ha         -27.85745566 eV
  | Total energy, T -> 0          :          -1.02374268 Ha         -27.85745566 eV  <-- do not rely on this value for anything but (periodic) metals
  | Electronic free energy        :          -1.02374268 Ha         -27.85745566 eV

  Derived energy quantities:
  | Kinetic energy                :           0.75507395 Ha          20.54660750 eV
  | Electrostatic energy          :          -1.28596005 Ha         -34.99275344 eV
  | Energy correction for multipole
  | error in Hartree potential    :          -0.00005661 Ha          -0.00154048 eV
  | Sum of eigenvalues per atom                           :         -12.36594336 eV
  | Total energy (T->0) per atom                          :         -13.92872783 eV  <-- do not rely on this value for anything but (periodic) metals
  | Electronic free energy per atom                       :         -13.92872783 eV

  Self-consistency convergence accuracy:
  | Change of charge density      : 0.2822E-08
  | Change of sum of eigenvalues  : 0.2226E-06 eV
  | Change of total energy        : 0.7696E-06 eV

  Writing Kohn-Sham eigenvalues.

  State    Occupation    Eigenvalue [Ha]    Eigenvalue [eV]
      1       2.00000          -0.454440          -12.36594
      2       0.00000           0.036990            1.00656
      3       0.00000           0.167263            4.55147
      4       0.00000           0.258988            7.04742
      5       0.00000           0.338623            9.21441
      6       0.00000           0.338623            9.21441
      7       0.00000           0.527399           14.35125
      8       0.00000           0.575633           15.66378
      9       0.00000           0.575633           15.66378
     10       0.00000           0.887191           24.14169
     11       0.00000           0.964845           26.25476
     12       0.00000           1.103651           30.03187
     13       0.00000           1.103651           30.03187
     14       0.00000           1.104866           30.06493
     15       0.00000           1.266559           34.46483
     16       0.00000           1.266559           34.46483
     17       0.00000           1.468985           39.97312
     18       0.00000           1.468985           39.97312
     19       0.00000           1.610219           43.81628
     20       0.00000           1.797813           48.92098
     21       0.00000           1.797813           48.92098
     22       0.00000           2.044473           55.63294
     23       0.00000           2.044473           55.63294
     24       0.00000           2.118058           57.63529
     25       0.00000           2.118058           57.63529
     26       0.00000           2.304614           62.71175
     27       0.00000           2.479003           67.45711
     28       0.00000           2.980263           81.09708
     29       0.00000           3.254070           88.54776
     30       0.00000           3.254070           88.54776
     31       0.00000           3.306531           89.97529
     32       0.00000           3.306531           89.97529
     33       0.00000           3.755032          102.17962
     34       0.00000           3.755032          102.17962
     35       0.00000           3.789099          103.10662
     36       0.00000           3.789099          103.10662
     37       0.00000           3.879338          105.56216
     38       0.00000           4.086556          111.20084
     39       0.00000           4.241886          115.42758
     40       0.00000           4.634425          126.10912
     41       0.00000           4.634425          126.10912
     42       0.00000           5.230986          142.34236
     43       0.00000           5.230986          142.34237
     44       0.00000           5.680840          154.58352
     45       0.00000           5.680840          154.58352
     46       0.00000           5.736888          156.10868
     47       0.00000           5.736888          156.10868
     48       0.00000           5.797411          157.75557
     49       0.00000           5.797411          157.75557
     50       0.00000           6.124269          166.64985
     51       0.00000           7.168603          195.06761
     52       0.00000           7.168603          195.06761
     53       0.00000           7.807287          212.44710
     54       0.00000           8.291238          225.61607
     55       0.00000           8.506295          231.46806
     56       0.00000           8.506295          231.46806
     57       0.00000           9.209903          250.61421
     58       0.00000           9.509801          258.77485
     59       0.00000           9.509801          258.77485
     60       0.00000          12.257237          333.53638
     61       0.00000          22.021762          599.24264
     62       0.00000          24.698065          672.06855

  Highest occupied state (VBM) at    -12.36594336 eV
  | Occupation number:      2.00000000

  Lowest unoccupied state (CBM) at     1.00655561 eV
  | Occupation number:      0.00000000

  Overall HOMO-LUMO gap:     13.37249897 eV.

  Self-consistency cycle converged.

  End self-consistency iteration #    11       :  max(cpu_time)    wall_clock(cpu1)
  | Time for this iteration                    :        0.768 s           0.767 s
  | Charge density update                      :        0.132 s           0.132 s
  | Density mixing                             :        0.040 s           0.037 s
  | Hartree multipole update                   :        0.064 s           0.064 s
  | Hartree multipole summation                :        0.248 s           0.248 s
  | Integration                                :        0.272 s           0.271 s
  | Fock matrix evaluation                     :        0.012 s           0.012 s
  | Solution of K.-S. eqns.                    :        0.004 s           0.002 s
  | Total energy evaluation                    :        0.000 s           0.000 s
------------------------------------------------------------

  Energy and forces in a compact form:
  | Total energy uncorrected      :         -0.278574556554821E+02 eV
  | Total energy corrected        :         -0.278574556554821E+02 eV  <-- do not rely on this value for anything but (periodic) metals
  | Electronic free energy        :         -0.278574556554821E+02 eV

  ------------------------------------ 
  Start decomposition of the XC Energy 
  ------------------------------------ 
  Hartree-Fock part   :          0.492856573 Ha             13.411309718 eV
  ------------------------------------ 
  X Energy            :          0.492856573 Ha             13.411309718 eV
  C Energy GGA        :          0.000000000 Ha              0.000000000 eV
  Total XC Energy     :          0.492856573 Ha             13.411309718 eV
  LDA X and C from self-consistent density 
  X Energy LDA        :         -0.435691229 Ha            -11.855761548 eV
  C Energy LDA        :         -0.084437129 Ha             -2.297651192 eV
  ------------------------------------ 
  End decomposition of the XC Energy 
  ------------------------------------ 
---------------------------------------------
---------------------------------------------
 | MP2 calculation starts ...
---------------------------------------------

  | Note : Resolution of identity applied 
  | Note : Non spin-polarized system 
---------------------------------------------
  | Homo level                                        1
  | Lumo level                                        2
  | Total Number of states                           62
  | Number of k-points                                1
  | Homo-Lumo Gap                            0.49143030 Ha         13.37249897 eV
---------------------------------------------
  The ovlp_3KS matrix takes another      0 MiB x      4 procs =       0.000 GiB.


---------------------------------------------
| Sum of correlation terms 
---------------------------------------------
  | Pair state     1                    :         -1.07961597 eV         -1.07961597 eV

---------------------------------------------
| Correlation energy spectrum 
---------------------------------------------
  |     2    :          0.03699024        -0.01250449
  |     3    :          0.16726348        -0.00121545
  |     4    :          0.25898786        -0.00739705
  |     5    :          0.33862339        -0.00195644
  |     6    :          0.33862339        -0.00195644
  |     7    :          0.52739891        -0.00098005
  |     8    :          0.57563323        -0.00034473
  |     9    :          0.57563323        -0.00034473
  |    10    :          0.88719091        -0.00145500
  |    11    :          0.96484472        -0.00151656
  |    12    :          1.10365076        -0.00019701
  |    13    :          1.10365077        -0.00019701
  |    14    :          1.10486589        -0.00175753
  |    15    :          1.26655926        -0.00062736
  |    16    :          1.26655926        -0.00062736
  |    17    :          1.46898531        -0.00007091
  |    18    :          1.46898533        -0.00007091
  |    19    :          1.61021886        -0.00120314
  |    20    :          1.79781298        -0.00069086
  |    21    :          1.79781298        -0.00069086
  |    22    :          2.04447312        -0.00040154
  |    23    :          2.04447312        -0.00040154
  |    24    :          2.11805797        -0.00010331
  |    25    :          2.11805797        -0.00010331
  |    26    :          2.30461447        -0.00014759
  |    27    :          2.47900322        -0.00028952
  |    28    :          2.98026286        -0.00020446
  |    29    :          3.25407047        -0.00005925
  |    30    :          3.25407048        -0.00005925
  |    31    :          3.30653119        -0.00003319
  |    32    :          3.30653119        -0.00003319
  |    33    :          3.75503209        -0.00010993
  |    34    :          3.75503209        -0.00010993
  |    35    :          3.78909853        -0.00002200
  |    36    :          3.78909853        -0.00002200
  |    37    :          3.87933795        -0.00034585
  |    38    :          4.08655582        -0.00027012
  |    39    :          4.24188553        -0.00017185
  |    40    :          4.63442490        -0.00003012
  |    41    :          4.63442491        -0.00003012
  |    42    :          5.23098572        -0.00005824
  |    43    :          5.23098578        -0.00005824
  |    44    :          5.68083983        -0.00006294
  |    45    :          5.68083983        -0.00006294
  |    46    :          5.73688844        -0.00005078
  |    47    :          5.73688844        -0.00005078
  |    48    :          5.79741067        -0.00003946
  |    49    :          5.79741077        -0.00003946
  |    50    :          6.12426927        -0.00008544
  |    51    :          7.16860280        -0.00001871
  |    52    :          7.16860280        -0.00001871
  |    53    :          7.80728744        -0.00002499
  |    54    :          8.29123826        -0.00002310
  |    55    :          8.50629502        -0.00006566
  |    56    :          8.50629502        -0.00006566
  |    57    :          9.20990282        -0.00005408
  |    58    :          9.50980104        -0.00004652
  |    59    :          9.50980104        -0.00004652
  |    60    :         12.25723673        -0.00002958
  |    61    :         22.02176213        -0.00001251
  |    62    :         24.69806510        -0.00000883
---------------------------------------------
 
 
 
          ---------------------------------------------
          | MP2 calculation comes to finish ...  
 
          ---------------------------------------------
          | Total time for calculating MP2 correction              :        0.000 s

          ---------------------------------------------

---------------------------------------------
  | HF Energy                      :         -1.02374268 Ha        -27.85745566 eV
  | MP2 correction                 :         -0.03967516 Ha         -1.07961597 eV
---------------------------------------------
  | Total Energy + MP2 correction  :         -1.06341784 Ha        -28.93707163 eV
---------------------------------------------

------------------------------------------------------------------------------
  Final output of selected total energy values:

  The following output summarizes some interesting total energy values
  at the end of a run (AFTER all relaxation, molecular dynamics, etc.).

  | Total energy of the DFT / Hartree-Fock s.c.f. calculation      :            -27.857455655 eV
  | Final zero-broadening corrected energy (caution - metals only) :            -27.857455655 eV
  | Total energy after the post-s.c.f. correlation calculation     :            -28.937071630 eV
  | For reference only, the value of 1 Hartree used in FHI-aims is :             27.211384500 eV

  Before relying on these values, please be sure to understand exactly which
  total energy value is referred to by a given number. Different objects may
  all carry the same name 'total energy'. Definitions:

  Total energy of the DFT / Hartree-Fock s.c.f. calculation:
  | Note that this energy does not include ANY quantities calculated after the
  | s.c.f. cycle, in particular not ANY RPA, MP2, etc. many-body perturbation terms.

  Final zero-broadening corrected energy:
  | For metallic systems only, a broadening of the occupation numbers at the Fermi
  | level can be extrapolated back to zero broadening by an electron-gas inspired
  | formula. For all systems that are not real metals, this value can be
  | meaningless and should be avoided.

  Total energy of the post-s.c.f. correlation calculation        :
  | The actual meaning of this energy depends on the setting for the 'total_energy_method'
  | keyword (MP2, RPA, rPT2, etc). If not sure, compare to the results listed above.

------------------------------------------------------------------------------

  Methods described in the following list of references were used in this FHI-aims run.
  If you publish the results, please make sure to cite these reference if they apply.
  FHI-aims is an academic code, and for our developers (often, Ph.D. students
  and postdocs), scientific credit in the community is essential.
  Thank you for helping us!

  For any use of FHI-aims, please cite:

    Volker Blum, Ralf Gehrke, Felix Hanke, Paula Havu, Ville Havu,
    Xinguo Ren, Karsten Reuter, and Matthias Scheffler,
    "Ab initio molecular simulations with numeric atom-centered orbitals"
    Computer Physics Communications 180, 2175-2196 (2009).
    http://dx.doi.org/10.1016/j.cpc.2009.06.022

  For Hartree-Fock, hybrid functionals, or many-body perturbation theory used in your run, please cite:

    Xinguo Ren, Patrick Rinke, Volker Blum, Juergen Wieferink, Alex Tkatchenko,
    Andrea Sanfilippo, Karsten Reuter, and Matthias Scheffler,
    "Resolution-of-identity approach to Hartree-Fock, hybrid density functionals,
     RPA, MP2, and GW with numeric atom-centered orbital basis functions"
    New Journal of Physics 14, 053020 (2012).
    http://dx.doi.org/10.1088/1367-2630/14/5/053020

  For the NAO-VCC-nZ basis sets used in this calculation, please cite:

    Igor Ying Zhang, Xinguo Ren, Patrick Rinke, Volker Blum, and Matthias Scheffler,
    "Numeric atom-centered-orbital basis sets with valence-correlation consistency from H to Ar"
    New Journal of Physics 15, 123033 (2013).
    http://dx.doi.org/10.1088/1367-2630/15/12/123033

  For the real-space grid partitioning and parallelization used in this calculation, please cite:

    Ville Havu, Volker Blum, Paula Havu, and Matthias Scheffler,
    "Efficient O(N) integration for all-electron electronic
    structure calculation using numerically tabulated basis functions"
    Journal of Computational Physics 228, 8367-8379 (2009).
    http://dx.doi.org/10.1016/j.jcp.2009.08.008

  Of course, there are many other important community references, e.g., those cited in the
  above references. Our list is limited to references that describe implementations in the FHI-aims
  code. The reason is purely practical (length of this list) - please credit others as well.

------------------------------------------------------------
          Leaving FHI-aims.
          Date     :  20140812, Time     :  111800.464

          Computational steps:
          | Number of self-consistency cycles          :           11

          Detailed time accounting                     :  max(cpu_time)    wall_clock(cpu1)
          | Total time                                 :       32.718 s          32.773 s
          | Preparation time                           :        0.168 s           0.189 s
          | Grid partitioning                          :        0.312 s           0.311 s
          | Preloading free-atom quantities on grid    :        0.112 s           0.112 s
          | Free-atom superposition energy             :        0.036 s           0.037 s
          | Total time for integrations                :        3.472 s           3.463 s
          | Product basis setup: Total time            :        0.000 s           0.000 s
          | Product basis: | 3-center integrations     :       22.601 s          22.629 s
          | Product basis: | 2-center integrations     :        0.256 s           0.252 s
          | Product basis: | 2-center linear algebra   :        0.072 s           0.071 s
          | Product basis: | 3-center x 2-center       :        0.032 s           0.029 s
          | Total time evaluating exchange matrix      :        0.160 s           0.150 s
          | Transforming ovlp_3fn to ovlp_3KS          :        0.012 s           0.010 s
          | Total time for solution of K.-S. equations :        0.044 s           0.020 s
          | Total time for density update              :        1.572 s           1.570 s
          | Total time for mixing                      :        0.232 s           0.220 s
          | Total time for Hartree multipole update    :        0.732 s           0.711 s
          | Total time for Hartree multipole sum       :        2.788 s           2.776 s
          | Total time for total energy evaluation     :        0.012 s           0.002 s

          Have a nice day.
------------------------------------------------------------
