  MPI-parallelism will be employed.
------------------------------------------------------------
          Invoking FHI-aims ...
          Version 072414
          Compiled on 2014/08/06 at 00:00:04 on host theobook58.

          When using FHI-aims, please cite the following reference:

          Volker Blum, Ralf Gehrke, Felix Hanke, Paula Havu,
          Ville Havu, Xinguo Ren, Karsten Reuter, and Matthias Scheffler,
          'Ab Initio Molecular Simulations with Numeric Atom-Centered Orbitals: FHI-aims',
          Computer Physics Communications 180, 2175-2196 (2009)

          For any questions about FHI-aims, please visit the aimsclub website
          with its forums and wiki. Contributions to both the forums and the
          wiki are warmly encouraged - they are for you, and everyone is welcome there.

------------------------------------------------------------

  Date     :  20140812, Time     :  112119.400
  Time zero on CPU 1             :   0.240010000000000E-01  s.
  Internal wall clock time zero  :           177074479.400  s.

  Using        4 parallel tasks.
  Task        0 on host theobook58 reporting.
  Task        1 on host theobook58 reporting.
  Task        2 on host theobook58 reporting.
  Task        3 on host theobook58 reporting.

  Performing system and environment tests:
  | Environment variable OMP_NUM_THREADS correctly set to 1.
  | Stacksize not measured: no C compiler
  | Checking for scalapack...
  | No scalapack compiled in.

  Obtaining array dimensions for all initial allocations:
  
  -----------------------------------------------------------------------
  Parsing control.in (first pass over file, find array dimensions only).
  The contents of control.in will be repeated verbatim below
  unless switched off by setting 'verbatim_writeout .false.' .
  in the first line of control.in .
  -----------------------------------------------------------------------
  
  xc                      hf
  total_energy_method     mp2
  relativistic            none
  occupation_type         integer 0.0001
  mixer                   pulay
  n_max_pulay             10
  charge_mix_param        0.6
  sc_iter_limit           600
  sc_accuracy_rho         1E-6
  sc_accuracy_eev         1E-4
  sc_accuracy_etot        1E-6
  override_illconditioning .true.
  charge                  0
  ################################################################################
  #
  #  FHI-aims code project
  # Igor Ying Zhang and Xinguo Ren, Fritz Haber Institute Berlin, 2012
  #
  #  Suggested "NAO-VCC-4Z" defaults for H atom (to be pasted into control.in file)
  #
  #  Please cite:
  #
  #  Igor Ying Zhang, Xinguo Ren, Patrick Rinke, Volker Blum, and Matthias Scheffler,
  #  "Numeric atom-centered-orbital basis sets with valence-correlation consistency from H to Ar"
  #  New Journal of Physics 15, 123033 (2013).
  #  http://dx.doi.org/10.1088/1367-2630/15/12/123033
  #
  ################################################################################
    species        H
  #     set basis set reference for FHI-aims output
      cite_reference NAO-VCC-2013
  #     global species definitions
      nucleus             1
      mass                1.00794
  #
      l_hartree           6
  #
      cut_pot             4.0  2.0  1.0
      basis_dep_cutoff    0e-4
  #
      radial_base         24 7.0
  radial_multiplier               6
      angular_grids       specified
        division   0.1930   50
        division   0.3175  110
        division   0.4293  194
        division   0.5066  302
        division   0.5626  434
        division   0.5922  590
  #      division   0.6227  974
  #      division   0.6868 1202
        outer_grid  770
  #      outer_grid  434
  ################################################################################
  #
  #  Definition of "minimal" basis
  #
  ################################################################################
  #     valence basis states
      valence      1  s   1.
  #     ion occupancy
      ion_occ      1  s   0.5
  ################################################################################
  
  
   basis_acc              1e-04
  #============================================
  # Optimization in      H for       NAO-VCC-4Z
  #============================================
  # (sp) correlation set
   hydro     1     s      1.15655525
   hydro     1     s      1.68684502
   hydro     1     s      2.46027686
   hydro     2     p      2.92145897
   hydro     2     p      4.14501835
   hydro     2     p      5.88102632
  # polarization set
   hydro     3     d      6.41446874
   hydro     3     d      7.67536483
   hydro     4     f     10.80870049
  # (sp) enhanced minimal set
   hydro     1     s      3.58833335
  
  -----------------------------------------------------------------------
  Completed first pass over input file control.in .
  -----------------------------------------------------------------------
  
  
  -----------------------------------------------------------------------
  Parsing geometry.in (first pass over file, find array dimensions only).
  The contents of geometry.in will be repeated verbatim below
  unless switched off by setting 'verbatim_writeout .false.' .
  in the first line of geometry.in .
  -----------------------------------------------------------------------
  
  atom             0.0             0.0             0.0    H
  atom             0.0             0.0             2.8    H
  
  -----------------------------------------------------------------------
  Completed first pass over input file geometry.in .
  -----------------------------------------------------------------------
  

  Basic array size parameters:
  | Number of species                 :        1
  | Number of atoms                   :        2
  | Max. basis fn. angular momentum   :        3
  | Max. atomic/ionic basis occupied n:        1
  | Max. number of basis fn. types    :        2
  | Max. radial fns per species/type  :       10
  | Max. logarithmic grid size        :     1131
  | Max. radial integration grid size :      149
  | Max. angular integration grid size:      770
  | Max. angular grid division number :        8
  | Radial grid for Hartree potential :     1131
  | Number of spin channels           :        1

------------------------------------------------------------
          Reading file control.in.
------------------------------------------------------------
 
  Hartree-Fock calculation starts ...... 
  Attention: this version of Hartree-Fock employs an auxiliary basis. 
 
  MP2 correlation energy calculation will be started after the DFT/HF calculation.
  Non-relativistic treatment of kinetic energy.
  Occupation type: Integer occupation.
  Using pulay charge density mixing.
  Pulay mixing - number of memorized iterations:   10
  Charge density mixing - mixing parameter:     0.6000
  Maximum number of s.-c. iterations  :   600
  Convergence accuracy of self-consistent charge density: 0.1000E-05
  Convergence accuracy of sum of eigenvalues: 0.1000E-03
  Convergence accuracy of total energy: 0.1000E-05
  override_illconditioning: Explicitly overriding any built-in checks for an ill-conditioned overlap matrix.
  *** WARNING: If you use this flag, you should really know what you are doing.
  *** DO NOT keep this flag set by default in all your control.in files.
  Charge =   0.000000E+00: Neutral system requested explicitly.
 
  Reading configuration options for species H                   .
  | Found nuclear charge :   1.0000
  | Found atomic mass :    1.00794000000000      amu
  | Found l_max for Hartree potential  :   6
  | Found cutoff potl. onset [A], width [A], scale factor :    4.00000    2.00000    1.00000
  | Threshold for basis-dependent cutoff potential is   0.000000E+00
  | Found data for basic radial integration grid :    24 points, outermost radius =    7.000 A
  | Found multiplier for basic radial grid :   6
  | Found angular grid specification: user-specified.
  | Specified grid contains     7 separate shells.
  | Check grid settings after all constraints further below.
  | Found free-atom valence shell :  1 s   1.000
  | No ionic wave fns used. Skipping ion_occ.
  | Found basis singularity cutoff : 0.1000E-03
  | Found hydrogenic basis function :  1 s   1.157
  | Found hydrogenic basis function :  1 s   1.687
  | Found hydrogenic basis function :  1 s   2.460
  | Found hydrogenic basis function :  2 p   2.921
  | Found hydrogenic basis function :  2 p   4.145
  | Found hydrogenic basis function :  2 p   5.881
  | Found hydrogenic basis function :  3 d   6.414
  | Found hydrogenic basis function :  3 d   7.675
  | Found hydrogenic basis function :  4 f  10.809
  | Found hydrogenic basis function :  1 s   3.588
  Species H                   : Missing cutoff potential type.
  Defaulting to exp(1/x)/(1-x)^2 type cutoff potential.
  Species H : No 'logarithmic' tag. Using default grid for free atom:
  | Default logarithmic grid data [bohr] : 0.1000E-03 0.1000E+03 0.1012E+01
  Species H                   : Using default innermost maximum threshold i_radial=  2 for radial functions.
  Species H                   : Default cutoff onset for free atom density etc. is infinite
  since the product basis is used (hybrid functionals, Hartree-Fock, GW etc.).
  Species H                   : Basic radial grid will be enhanced according to radial_multiplier =   6, to contain   149 grid points.
 
  Finished reading input file 'control.in'. Consistency checks are next.
 
  Species H: Using default value for prodbas_acc =   1.000000E-02.
  Species H: Using default value max_l_prodbas =     5.
  Target number of points in a grid batch is not set. Defaulting to  100
  Method for grid partitioning is not set. Defaulting to parallel hash+maxmin partitioning.
  Batch size limit is not set. Defaulting to    200
  By default, will store active basis functions for each batch.
  If in need of memory, prune_basis_once .false. can be used to disable this option.
  communication_type for Hartree potential was not specified.
  Defaulting to calc_hartree .
  Pulay mixer: Number of initial linear mixing iterations not set.
  Defaulting to    0 iterations.
  Work space size for distributed Hartree potential not set.
  Defaulting to   0.200000E+03 MB.
  Algorithm-dependent basis array size parameters:
  | n_max_pulay                         :       10
  Calculation of forces was not defined in control.in. No forces will be calculated.
  Geometry relaxation not requested: no relaxation will be performed.
  No accuracy limit for integral partition fn. given. Defaulting to 0.1000E-14.
  No threshold value for u(r) in integrations given. Defaulting to 0.1000E-05.
  No accuracy for occupation numbers given. Defaulting to 0.1000E-07.
  No threshold value for occupation numbers given. Defaulting to 0.0000E+00.
  No accuracy for fermi level given. Defaulting to 0.1000E-19.
  Maximum # of iterations to find E_F not set. Defaulting to  200.
  Preferred method for the eigenvalue solver ('KS_method') not specified in 'control.in'.
  Calling blacs routine to test compilation state
  The best choice would be 'elpa', but your version of FHI-aims is compiled without scalapack support.
  Defaulting to 'lapack_fast' instead (serial solution, time will not improve with more CPUs).
  Will not use alltoall communication since running on < 1024 CPUs.
  Threshold for basis singularities not set.
  Default threshold for basis singularities: 0.1000E-04
  partition_type (choice of integration weights) for integrals was not specified.
  | Using a version of the partition function of Stratmann and coworkers ('stratmann_smoother').
  | At each grid point, the set of atoms used to build the partition table is smoothly restricted to
  | only those atoms whose free-atom density would be non-zero at that grid point.
  Partitioning for Hartree potential was not defined. Using partition_type for integrals.
  | Adjusted default value of keyword multip_moments_threshold to:       0.10000000E-11
  | This value may affect high angular momentum components of the Hartree potential in periodic systems.
  Spin handling was not defined in control.in. Defaulting to unpolarized case.
  Threshold for auxiliary basis singularities not set.
  Default threshold for auxiliary basis singularities: 0.1000E-04
  No q(lm)/r^(l+1) cutoff set for long-range Hartree potential.
  | Using default value of  0.100000E-09 .
  | Verify using the multipole_threshold keyword.
  Defaulting to new monopole extrapolation.
  Density update method: automatic selection selected.
  Default to 1D ("use_logsbt") integrations for auxiliary 2-center integrals.
  Default onset of logarithmic r-grid for SBT is-38.000000000000
  Default onset of logarithmic k-grid for SBT is-25.000000000000
  Default range of logarithmic r- and k-grid for SBT is 45.000000000000
  Default number of logarithmic r- and k-grid for SBT is  4096
------------------------------------------------------------


------------------------------------------------------------
          Reading geometry description geometry.in.
------------------------------------------------------------
  Input structure read successfully.
  The structure contains        2 atoms,  and a total of          2.000 electrons.

  Input geometry:
  | No unit cell requested.
  | Atomic structure:
  |       Atom                x [A]            y [A]            z [A]
  |    1: Species H              0.000000         0.000000         0.000000
  |    2: Species H              0.000000         0.000000         2.800000
  |

  | The smallest distance between any two atoms is         2.80000000 AA.
  |
  | The first atom of this pair is atom number                      1 .
  | The second atom of this pair is atom number                     2 .

  Number of empty states per atom not set in control.in .
  | Since you are using a method that relies on the unoccupied spectrum
  | (MP2,GW,RPA et al.), will use the full Hamiltonian size (see below)
  | as the max. possible number of states (occupied plus empty).

  Structure-dependent array size parameters: 
  | Maximum number of distinct radial functions  :       11
  | Maximum number of basis functions            :       62
  | Number of Kohn-Sham states (occupied + empty):       62
------------------------------------------------------------

------------------------------------------------------------
          Preparing all fixed parts of the calculation.
------------------------------------------------------------
  Determining machine precision:
    2.225073858507201E-308
  Setting up grids for atomic and cluster calculations.

  Creating wave function, potential, and density for free atoms.

  Species: H

  List of occupied orbitals and eigenvalues:
    n    l              occ      energy [Ha]    energy [eV]
    1    0           1.0000        -0.233457        -6.3527

  Creating fixed part of basis set: Ionic, confined, hydrogenic.
 
  H                    hydrogenic:
 
  List of hydrogenic basis orbitals: 
    n    l      effective z      eigenvalue [eV]  inner max. [A]     outer max. [A]     outer radius [A]   
    1    0         1.156555       -18.1992           0.460320           0.460320           5.243229
    1    0         1.686845       -38.7143           0.315118           0.315118           4.932336
    1    0         2.460277       -82.3547           0.215718           0.215718           3.815562
    2    1         2.921459       -29.0309           0.723605           0.723605           5.243229
    2    1         4.145018       -58.4405           0.507614           0.507614           4.813203
    2    1         5.881026      -117.6432           0.360475           0.360475           3.678162
    3    2         6.414469       -62.2013           0.741515           0.741515           4.993004
    3    2         7.675365       -89.0587           0.617279           0.617279           4.583499
    4    3        10.808700       -99.3454           0.778676           0.778676           4.696947
    1    0         3.588333      -175.1887           0.147673           0.147673           2.644120
 

  Adding cutoff potential to free-atom effective potential.
  Creating atomic-like basis functions for current effective potential.

  Species H                   :

  List of atomic basis orbitals and eigenvalues:
    n    l      energy [Ha]    energy [eV]    outer radius [A]
    1    0        -0.233418        -6.3516       5.373006

  Assembling full basis from fixed parts.
  | Species H :   atomic orbital   1 s accepted.
  | Species H :    hydro orbital   1 s accepted.
  | Species H :    hydro orbital   1 s accepted.
  | Species H :    hydro orbital   1 s accepted.
  | Species H :    hydro orbital   1 s accepted.
  | Species H :    hydro orbital   2 p accepted.
  | Species H :    hydro orbital   2 p accepted.
  | Species H :    hydro orbital   2 p accepted.
  | Species H :    hydro orbital   3 d accepted.
  | Species H :    hydro orbital   3 d accepted.
  | Species H :    hydro orbital   4 f accepted.
 
  Basis size parameters after reduction:
  | Total number of radial functions:       11
  | Total number of basis functions :       62
 
  Testing on-site integration grid accuracy.
  |  Species  Function  <phi|h_atom|phi> (log., in eV)  <phi|h_atom|phi> (rad., in eV)
           1        1                 -6.3519216712                 -6.3519215989
           1        2                  8.4716038567                  8.4716058028
           1        3                 58.3749927434                 58.3750109815
           1        4                178.9024737125                178.9026031671
           1        5                456.3642310330                456.3649721232
           1        6                 16.2415699263                 16.2415699338
           1        7                 68.2932618880                 68.2932619123
           1        8                188.3801588017                188.3801587562
           1        9                 49.9849006789                 49.9849006869
           1       10                114.3821731125                114.3821730675
           1       11                 88.0899419283                 88.0899419237

  Preparing densities etc. for the partition functions (integrals / Hartree potential).

  Preparations completed.
  max(cpu_time)          :      0.164 s.
  Wall clock time (cpu1) :      0.197 s.
------------------------------------------------------------

------------------------------------------------------------
          Begin self-consistency loop: Initialization.

          Date     :  20140812, Time     :  112119.603
------------------------------------------------------------

  Initializing index lists of integration centers etc. from given atomic structure:
  | Number of centers in hartree potential         :         2
  | Number of centers in hartree multipole         :         2
  | Number of centers in electron density summation:         2
  | Number of centers in basis integrals           :         2
  | Number of centers in integrals                 :         2
  Partitioning the integration grid into batches with parallel hashing+maxmin method.
  | Number of batches:     1938
  | Maximal batch size:     150
  | Minimal batch size:      61
  | Average batch size:      74.512
  | Standard deviation of batch sizes:      16.742

  Integration load balanced across     4 MPI tasks.
  Work distribution over tasks is as follows:
  Task     0 has      36067 integration points.
  Task     1 has      36098 integration points.
  Task     2 has      36096 integration points.
  Task     3 has      36143 integration points.
  Initializing partition tables, free-atom densities, potentials, etc. across the integration grid (initialize_grid_storage).
  | Original list of interatomic distances with           2 x          2 entries is created.
  | Net number of integration points:   144404
  | of which are non-zero points    :   139874
  Obtaining max. number of non-zero basis functions in each batch (get_n_compute_maxes).
  | Maximal number of non-zero basis functions:       62 in task     0
  | Maximal number of non-zero basis functions:       62 in task     1
  | Maximal number of non-zero basis functions:       62 in task     2
  | Maximal number of non-zero basis functions:       62 in task     3
  Selecting the method for density update.
  Loop over occupied states selected for charge density update.
  Integrating Hamiltonian matrix: batch-based integration.
  Time summed over all CPUs for integration: real work        1.176 s, elapsed        1.186 s
  Integrating overlap matrix.
  Time summed over all CPUs for integration: real work        0.741 s, elapsed        0.747 s

  Updating Kohn-Sham eigenvalues, eigenvectors, occupation numbers, and Fermi level.
  Solving generalized eigenproblem
  Updating Kohn-Sham eigenvalues and eigenfunctions.
  Transforming overlap matrix and checking for singularities.
  Overlap matrix is nonsingular:
  | Lowest eigenvalue:  0.163329E+00
  Solving real generalised eigenvalue problem by standard LAPACK (fast)
  Determining occupation numbers for Kohn-Sham eigenstates.
  | Chemical potential (Fermi level) in eV                 : -.63659191E+01
  | Error in electron count due to remaining E_F inaccuracy: 0.00000000E+00
  | Maximum occupation number of highest empty state:  0.00E+00

  Writing Kohn-Sham eigenvalues.

  State    Occupation    Eigenvalue [Ha]    Eigenvalue [eV]
      1       2.00000          -0.250754           -6.82335
      2       0.00000          -0.217133           -5.90848
      3       0.00000           0.099747            2.71424
      4       0.00000           0.112323            3.05648
      5       0.00000           0.185889            5.05829
      6       0.00000           0.209760            5.70785
      7       0.00000           0.209760            5.70785
      8       0.00000           0.280983            7.64595
      9       0.00000           0.280983            7.64595
     10       0.00000           0.441327           12.00911
     11       0.00000           0.728572           19.82546
     12       0.00000           0.816068           22.20635
     13       0.00000           0.933244           25.39486
     14       0.00000           0.933244           25.39486
     15       0.00000           0.982053           26.72303
     16       0.00000           1.002968           27.29215
     17       0.00000           1.002968           27.29215
     18       0.00000           1.041376           28.33728
     19       0.00000           1.041376           28.33728
     20       0.00000           1.133358           30.84024
     21       0.00000           1.133358           30.84024
     22       0.00000           1.273702           34.65918
     23       0.00000           1.552494           42.24550
     24       0.00000           1.552494           42.24550
     25       0.00000           1.620170           44.08708
     26       0.00000           1.664621           45.29665
     27       0.00000           1.664621           45.29665
     28       0.00000           2.047689           55.72045
     29       0.00000           3.147770           85.65519
     30       0.00000           3.148094           85.66400
     31       0.00000           3.148094           85.66400
     32       0.00000           3.202140           87.13465
     33       0.00000           3.202140           87.13465
     34       0.00000           3.232898           87.97164
     35       0.00000           3.232898           87.97164
     36       0.00000           3.240923           88.19001
     37       0.00000           3.240923           88.19001
     38       0.00000           3.271912           89.03326
     39       0.00000           3.271912           89.03326
     40       0.00000           3.356703           91.34055
     41       0.00000           3.356703           91.34055
     42       0.00000           3.407944           92.73487
     43       0.00000           3.519021           95.75743
     44       0.00000           3.676555          100.04415
     45       0.00000           4.894406          133.18357
     46       0.00000           4.894406          133.18357
     47       0.00000           4.979756          135.50606
     48       0.00000           4.979756          135.50606
     49       0.00000           5.014406          136.44892
     50       0.00000           5.059298          137.67050
     51       0.00000           5.059298          137.67050
     52       0.00000           5.275795          143.56169
     53       0.00000           5.275795          143.56169
     54       0.00000           5.709059          155.35140
     55       0.00000           8.114375          220.80338
     56       0.00000           8.114375          220.80338
     57       0.00000           8.289866          225.57873
     58       0.00000           8.365441          227.63523
     59       0.00000           8.365441          227.63523
     60       0.00000           9.227129          251.08296
     61       0.00000          21.393583          582.14900
     62       0.00000          21.815138          593.62012

  Highest occupied state (VBM) at     -6.82335331 eV
  | Occupation number:      2.00000000

  Lowest unoccupied state (CBM) at    -5.90848485 eV
  | Occupation number:      0.00000000

  Overall HOMO-LUMO gap:      0.91486847 eV.
  Calculating total energy contributions from superposition of free atom densities.

  Total energy components:
  | Sum of eigenvalues            :          -0.50150725 Ha         -13.64670663 eV
  | XC energy correction          :          -0.46768322 Ha         -12.72630800 eV
  | XC potential correction       :           0.60961963 Ha          16.58859426 eV
  | Free-atom electrostatic energy:          -0.56477928 Ha         -15.36842622 eV
  | Hartree energy correction     :           0.00000000 Ha           0.00000000 eV
  | Entropy correction            :           0.00000000 Ha           0.00000000 eV
  | ---------------------------
  | Total energy                  :          -0.92435012 Ha         -25.15284659 eV
  | Total energy, T -> 0          :          -0.92435012 Ha         -25.15284659 eV  <-- do not rely on this value for anything but (periodic) metals
  | Electronic free energy        :          -0.92435012 Ha         -25.15284659 eV

  Derived energy quantities:
  | Kinetic energy                :           0.81993977 Ha          22.31169642 eV
  | Electrostatic energy          :          -1.27660667 Ha         -34.73823501 eV
  | Energy correction for multipole
  | error in Hartree potential    :           0.00000000 Ha           0.00000000 eV
  | Sum of eigenvalues per atom                           :          -6.82335331 eV
  | Total energy (T->0) per atom                          :         -12.57642330 eV  <-- do not rely on this value for anything but (periodic) metals
  | Electronic free energy per atom                       :         -12.57642330 eV
 
 --------------------------------------------
  Constructing auxiliary basis (full product) ...
 
  Product basis:
  | charge radius: extent of product basis function
  | field radius: extent of its Coulomb potential
  | Species   l  charge radius    field radius  multipol momen
  |    H      5     4.813203 A      4.813203 A  2.676041E-15 a.u.
  |    H      4     4.932336 A      4.932336 A  2.417679E-16 a.u.
  |    H      3     5.054418 A      5.054418 A  ************ a.u.
  |    H      4     5.054418 A      5.054418 A  ************ a.u.
  |    H      3     5.116587 A      5.116587 A  1.642688E-15 a.u.
  |    H      2     5.179521 A      5.179521 A  6.126280E-16 a.u.
  |    H      3     5.179521 A      5.179521 A  ************ a.u.
  |    H      2     5.243229 A      5.243229 A  1.485543E-16 a.u.
  |    H      2     5.243229 A      5.243229 A  1.683301E-16 a.u.
  |    H      2     5.243229 A      5.243229 A  ************ a.u.
  |    H      3     5.243229 A      5.243229 A  ************ a.u.
  |    H      1     5.307721 A      5.307721 A  2.416866E-16 a.u.
  |    H      1     5.307721 A      5.307721 A  1.291012E-16 a.u.
  |    H      2     5.307721 A      5.307721 A  7.871382E-16 a.u.
  |    H      0     5.373006 A      5.373006 A  9.519909E-17 a.u.
  |    H      1     5.373006 A      5.373006 A  2.334090E-16 a.u.
  |    H      1     5.373006 A      5.373006 A  ************ a.u.
  |    H      1     5.373006 A      5.373006 A  ************ a.u.
  |    H      1     5.373006 A      5.373006 A  1.823473E-16 a.u.
  |    H      0     5.373006 A      5.439094 A  ************ a.u.
  |    H      0     5.439094 A      5.439094 A  ************ a.u.
  |    H      0     5.439094 A      5.505995 A  9.305319E-17 a.u.
  |    H      0     5.439094 A      5.505995 A  4.082184E-17 a.u.
  |    H      0     5.439094 A      5.505995 A  3.169850E-16 a.u.
  |    H      0     5.439094 A      5.505995 A  2.711689E-16 a.u.
  |    H      5     4.872405 A  1.325110E+02 A           19.619780 a.u.
  |    H      4     5.054418 A  3.771796E+02 A           14.639479 a.u.
  |    H      3     5.243229 A  1.836978E+03 A           11.555842 a.u.
  |    H      2     5.307721 A  2.095310E+04 A            4.940052 a.u.
  |    H      1     5.373006 A  2.512347E+06 A            1.793689 a.u.
  |    H      0     5.439094 A  4.604132E+12 A            0.692368 a.u.

  | Shrink_full_auxil_basis : there are       31  radial auxiliary wave functions
                            accepted and      90 rejected.
  | Shrink_full_auxil_basis : there are totally     286 partial auxiliary wave functions.
 
  | Number of product basis functions per thread :    72
  | Minimal requirement for computer memories :           0.005 Gbs
 
  Basis pair condensation :      1953  -->       1953
 
 ----------------------------------------------------
  Integrating the 3-basis-function Coulomb matrix ...
  | i_atom:            1
  | i_atom:            2
  Integrating the Coulomb interaction matrix for auxiliary basis functions (by atoms)

  SBT integration errors (all should be 'small'):
  large logFT aliasing -> increase N/lnrange
  large SBT aliasing -> decrease lnk0 & increase lnk0+lnrange
  large SBT ringing -> decrease lnr0 & increase lnr0+lnrange
  |            El't  L: logFT-al.   small-k   large-k   small-r   large-r
  Atomic logSBT for 2-center Coulomb matrix    :  max(cpu_time)    wall_clock(cpu1)
  | Multiplication with kernel                 :        0.020 s           0.012 s
  | Main matrix multiplication                 :        0.064 s           0.049 s
  | Analytic angular integration               :        0.008 s           0.000 s
  | Kernel construction                        :        0.008 s           0.002 s
  | Overall 2-center overlap time              :        0.096 s           0.064 s

  Difference of Coulomb matrix to its transposed:  1.3878E-16
  Task     0: Eigenvalues of the Coulomb matrix range from    1.9991E+00 to    8.4913E-04.
  Task     0: Using      286   eigenvalues out of rank      286   Coulomb matrix (auxiliary basis).
 
  Multiplying V^-0.5 x ovlp_3fn (1d-scalapack)

  Initialize hartree_potential_storage
  Max. number of atoms included in rho_multipole:            2

  End scf initialization - timings             :  max(cpu_time)    wall_clock(cpu1)
  | Time for scf. initialization               :       24.610 s          24.633 s
  | Boundary condition initialization          :        0.000 s           0.002 s
  | Integration                                :        0.484 s           0.483 s
  | Solution of K.-S. eqns.                    :        0.008 s           0.007 s
  | Grid partitioning                          :        0.288 s           0.290 s
  | Preloading free-atom quantities on grid    :        0.068 s           0.070 s
  | Free-atom superposition energy             :        0.036 s           0.036 s
  | Total energy evaluation                    :        0.000 s           0.001 s
  | Product basis setup: Total time            :       23.633 s          23.657 s
  | Product basis: | 3-center integrations     :       23.161 s          23.183 s
  | Product basis: | 2-center integrations     :        0.256 s           0.256 s
  | Product basis: | 2-center linear algebra   :        0.080 s           0.080 s
  | Product basis: | 3-center x 2-center       :        0.028 s           0.025 s
------------------------------------------------------------

------------------------------------------------------------
          Begin self-consistency iteration #    1

  Date     :  20140812, Time     :  112144.237
------------------------------------------------------------
  Evaluating new KS density.
  Integration grid: deviation in total charge (<rho> - N_e) =   4.440892E-15
  Pulay mixing of updated and previous charge densities.

  Evaluating partitioned Hartree potential by multipole expansion.
  | Analytical far-field extrapolation by fixed multipoles:
  | Hartree multipole sum: apparent total charge =  -0.105832E-06
  Summing up the Hartree potential.
  Time summed over all CPUs for potential: real work        1.013 s, elapsed        1.024 s
  | RMS charge density error from multipole expansion :   0.604081E-04

  Integrating Hamiltonian matrix: batch-based integration.
  Time summed over all CPUs for integration: real work        1.073 s, elapsed        1.090 s
  Evaluating the exchange matrix ... 

  Updating Kohn-Sham eigenvalues, eigenvectors, occupation numbers, and Fermi level.
  Solving generalized eigenproblem
  Updating Kohn-Sham eigenvalues and eigenfunctions.
  Solving real generalised eigenvalue problem by standard LAPACK (fast)
  Determining occupation numbers for Kohn-Sham eigenstates.
  | Chemical potential (Fermi level) in eV                 : -.58978199E+01
  | Error in electron count due to remaining E_F inaccuracy: 0.00000000E+00
  | Maximum occupation number of highest empty state:  0.00E+00

  Writing Kohn-Sham eigenvalues.

  State    Occupation    Eigenvalue [Ha]    Eigenvalue [eV]
      1       2.00000          -0.330809           -9.00176
      2       0.00000          -0.102673           -2.79388
      3       0.00000           0.196719            5.35298
      4       0.00000           0.207867            5.65635
      5       0.00000           0.342892            9.33058
      6       0.00000           0.358231            9.74795
      7       0.00000           0.358231            9.74795
      8       0.00000           0.442748           12.04779
      9       0.00000           0.442748           12.04779
     10       0.00000           0.615521           16.74919
     11       0.00000           0.935448           25.45484
     12       0.00000           1.025360           27.90146
     13       0.00000           1.128135           30.69813
     14       0.00000           1.128135           30.69813
     15       0.00000           1.180582           32.12528
     16       0.00000           1.199487           32.63971
     17       0.00000           1.199487           32.63971
     18       0.00000           1.240678           33.76058
     19       0.00000           1.240678           33.76058
     20       0.00000           1.342243           36.52430
     21       0.00000           1.342243           36.52430
     22       0.00000           1.506612           40.99701
     23       0.00000           1.819434           49.50933
     24       0.00000           1.819434           49.50933
     25       0.00000           1.892459           51.49643
     26       0.00000           1.931617           52.56197
     27       0.00000           1.931617           52.56197
     28       0.00000           2.317611           63.06540
     29       0.00000           3.409496           92.77711
     30       0.00000           3.409496           92.77711
     31       0.00000           3.410458           92.80328
     32       0.00000           3.464359           94.27001
     33       0.00000           3.464359           94.27001
     34       0.00000           3.495175           95.10855
     35       0.00000           3.495175           95.10855
     36       0.00000           3.503490           95.33480
     37       0.00000           3.503490           95.33480
     38       0.00000           3.536712           96.23883
     39       0.00000           3.536712           96.23883
     40       0.00000           3.626242           98.67507
     41       0.00000           3.626242           98.67507
     42       0.00000           3.693690          100.51042
     43       0.00000           3.873419          105.40109
     44       0.00000           4.020652          109.40750
     45       0.00000           5.231416          142.35407
     46       0.00000           5.231416          142.35407
     47       0.00000           5.316186          144.66079
     48       0.00000           5.316186          144.66079
     49       0.00000           5.354904          145.71434
     50       0.00000           5.396694          146.85152
     51       0.00000           5.396694          146.85152
     52       0.00000           5.617417          152.85769
     53       0.00000           5.617417          152.85769
     54       0.00000           6.061655          164.94604
     55       0.00000           8.530001          232.11314
     56       0.00000           8.530001          232.11314
     57       0.00000           8.708180          236.96163
     58       0.00000           8.781906          238.96781
     59       0.00000           8.781906          238.96781
     60       0.00000           9.647270          262.51557
     61       0.00000          21.896490          595.83381
     62       0.00000          22.318109          607.30665

  Highest occupied state (VBM) at     -9.00176062 eV
  | Occupation number:      2.00000000

  Lowest unoccupied state (CBM) at    -2.79387918 eV
  | Occupation number:      0.00000000

  Overall HOMO-LUMO gap:      6.20788144 eV.

  Total energy components:
  | Sum of eigenvalues            :          -0.66161724 Ha         -18.00352124 eV
  | XC energy correction          :           0.37223762 Ha          10.12910107 eV
  | XC potential correction       :           0.00000000 Ha           0.00000000 eV
  | Free-atom electrostatic energy:          -0.56477928 Ha         -15.36842622 eV
  | Hartree energy correction     :           0.00613123 Ha           0.16683938 eV
  | Entropy correction            :           0.00000000 Ha           0.00000000 eV
  | ---------------------------
  | Total energy                  :          -0.84802767 Ha         -23.07600701 eV
  | Total energy, T -> 0          :          -0.84802767 Ha         -23.07600701 eV  <-- do not rely on this value for anything but (periodic) metals
  | Electronic free energy        :          -0.84802767 Ha         -23.07600701 eV

  Derived energy quantities:
  | Kinetic energy                :           0.77338997 Ha          21.04501186 eV
  | Electrostatic energy          :          -1.24918002 Ha         -33.99191780 eV
  | Energy correction for multipole
  | error in Hartree potential    :          -0.00000888 Ha          -0.00024167 eV
  | Sum of eigenvalues per atom                           :          -9.00176062 eV
  | Total energy (T->0) per atom                          :         -11.53800351 eV  <-- do not rely on this value for anything but (periodic) metals
  | Electronic free energy per atom                       :         -11.53800351 eV

  Self-consistency convergence accuracy:
  | Change of charge density      : 0.2231E-01
  | Change of sum of eigenvalues  : -.4357E+01 eV
  | Change of total energy        : 0.2077E+01 eV

  End self-consistency iteration #     1       :  max(cpu_time)    wall_clock(cpu1)
  | Time for this iteration                    :        0.756 s           0.755 s
  | Charge density update                      :        0.144 s           0.141 s
  | Density mixing                             :        0.004 s           0.002 s
  | Hartree multipole update                   :        0.068 s           0.065 s
  | Hartree multipole summation                :        0.256 s           0.257 s
  | Integration                                :        0.272 s           0.273 s
  | Fock matrix evaluation                     :        0.016 s           0.012 s
  | Solution of K.-S. eqns.                    :        0.004 s           0.002 s
  | Total energy evaluation                    :        0.000 s           0.000 s
------------------------------------------------------------

------------------------------------------------------------
          Begin self-consistency iteration #    2

  Date     :  20140812, Time     :  112144.992
------------------------------------------------------------
  Evaluating new KS density.
  Integration grid: deviation in total charge (<rho> - N_e) =   4.884981E-15
  Pulay mixing of updated and previous charge densities.

  Evaluating partitioned Hartree potential by multipole expansion.
  | Analytical far-field extrapolation by fixed multipoles:
  | Hartree multipole sum: apparent total charge =  -0.917240E-07
  Summing up the Hartree potential.
  Time summed over all CPUs for potential: real work        1.010 s, elapsed        1.029 s
  | RMS charge density error from multipole expansion :   0.208767E-04

  Integrating Hamiltonian matrix: batch-based integration.
  Time summed over all CPUs for integration: real work        1.078 s, elapsed        1.106 s
  Evaluating the exchange matrix ... 

  Updating Kohn-Sham eigenvalues, eigenvectors, occupation numbers, and Fermi level.
  Solving generalized eigenproblem
  Updating Kohn-Sham eigenvalues and eigenfunctions.
  Solving real generalised eigenvalue problem by standard LAPACK (fast)
  Determining occupation numbers for Kohn-Sham eigenstates.
  | Chemical potential (Fermi level) in eV                 : -.57891241E+01
  | Error in electron count due to remaining E_F inaccuracy: 0.00000000E+00
  | Maximum occupation number of highest empty state:  0.00E+00

  Highest occupied state (VBM) at     -8.89708400 eV
  | Occupation number:      2.00000000

  Lowest unoccupied state (CBM) at    -2.68116412 eV
  | Occupation number:      0.00000000

  Overall HOMO-LUMO gap:      6.21591987 eV.

  Total energy components:
  | Sum of eigenvalues            :          -0.65392365 Ha         -17.79416799 eV
  | XC energy correction          :           0.36663237 Ha           9.97657449 eV
  | XC potential correction       :           0.00000000 Ha           0.00000000 eV
  | Free-atom electrostatic energy:          -0.56477928 Ha         -15.36842622 eV
  | Hartree energy correction     :          -0.01056620 Ha          -0.28752096 eV
  | Entropy correction            :           0.00000000 Ha           0.00000000 eV
  | ---------------------------
  | Total energy                  :          -0.86263676 Ha         -23.47354069 eV
  | Total energy, T -> 0          :          -0.86263676 Ha         -23.47354069 eV  <-- do not rely on this value for anything but (periodic) metals
  | Electronic free energy        :          -0.86263676 Ha         -23.47354069 eV

  Derived energy quantities:
  | Kinetic energy                :           0.79684801 Ha          21.68333756 eV
  | Electrostatic energy          :          -1.29285240 Ha         -35.18030377 eV
  | Energy correction for multipole
  | error in Hartree potential    :           0.00000005 Ha           0.00000146 eV
  | Sum of eigenvalues per atom                           :          -8.89708400 eV
  | Total energy (T->0) per atom                          :         -11.73677035 eV  <-- do not rely on this value for anything but (periodic) metals
  | Electronic free energy per atom                       :         -11.73677035 eV

  Self-consistency convergence accuracy:
  | Change of charge density      : 0.3425E-01
  | Change of sum of eigenvalues  : 0.2094E+00 eV
  | Change of total energy        : -.3975E+00 eV

  End self-consistency iteration #     2       :  max(cpu_time)    wall_clock(cpu1)
  | Time for this iteration                    :        0.760 s           0.758 s
  | Charge density update                      :        0.140 s           0.138 s
  | Density mixing                             :        0.008 s           0.004 s
  | Hartree multipole update                   :        0.064 s           0.066 s
  | Hartree multipole summation                :        0.260 s           0.258 s
  | Integration                                :        0.280 s           0.277 s
  | Fock matrix evaluation                     :        0.012 s           0.013 s
  | Solution of K.-S. eqns.                    :        0.000 s           0.001 s
  | Total energy evaluation                    :        0.004 s           0.001 s
------------------------------------------------------------

------------------------------------------------------------
          Begin self-consistency iteration #    3

  Date     :  20140812, Time     :  112145.750
------------------------------------------------------------
  Evaluating new KS density.
  Integration grid: deviation in total charge (<rho> - N_e) =   2.664535E-15
  Pulay mixing of updated and previous charge densities.

  Evaluating partitioned Hartree potential by multipole expansion.
  | Analytical far-field extrapolation by fixed multipoles:
  | Hartree multipole sum: apparent total charge =  -0.107116E-06
  Summing up the Hartree potential.
  Time summed over all CPUs for potential: real work        1.013 s, elapsed        1.023 s
  | RMS charge density error from multipole expansion :   0.154668E-03

  Integrating Hamiltonian matrix: batch-based integration.
  Time summed over all CPUs for integration: real work        1.075 s, elapsed        1.099 s
  Evaluating the exchange matrix ... 

  Updating Kohn-Sham eigenvalues, eigenvectors, occupation numbers, and Fermi level.
  Solving generalized eigenproblem
  Updating Kohn-Sham eigenvalues and eigenfunctions.
  Solving real generalised eigenvalue problem by standard LAPACK (fast)
  Determining occupation numbers for Kohn-Sham eigenstates.
  | Chemical potential (Fermi level) in eV                 : -.61341809E+01
  | Error in electron count due to remaining E_F inaccuracy: 0.00000000E+00
  | Maximum occupation number of highest empty state:  0.00E+00

  Highest occupied state (VBM) at     -9.22888709 eV
  | Occupation number:      2.00000000

  Lowest unoccupied state (CBM) at    -3.03947466 eV
  | Occupation number:      0.00000000

  Overall HOMO-LUMO gap:      6.18941243 eV.

  Total energy components:
  | Sum of eigenvalues            :          -0.67831073 Ha         -18.45777418 eV
  | XC energy correction          :           0.35867178 Ha           9.75995584 eV
  | XC potential correction       :           0.00000000 Ha           0.00000000 eV
  | Free-atom electrostatic energy:          -0.56477928 Ha         -15.36842622 eV
  | Hartree energy correction     :           0.03763468 Ha           1.02409187 eV
  | Entropy correction            :           0.00000000 Ha           0.00000000 eV
  | ---------------------------
  | Total energy                  :          -0.84678355 Ha         -23.04215270 eV
  | Total energy, T -> 0          :          -0.84678355 Ha         -23.04215270 eV  <-- do not rely on this value for anything but (periodic) metals
  | Electronic free energy        :          -0.84678355 Ha         -23.04215270 eV

  Derived energy quantities:
  | Kinetic energy                :           0.66600499 Ha          18.12291776 eV
  | Electrostatic energy          :          -1.15411675 Ha         -31.40511462 eV
  | Energy correction for multipole
  | error in Hartree potential    :          -0.00002974 Ha          -0.00080939 eV
  | Sum of eigenvalues per atom                           :          -9.22888709 eV
  | Total energy (T->0) per atom                          :         -11.52107635 eV  <-- do not rely on this value for anything but (periodic) metals
  | Electronic free energy per atom                       :         -11.52107635 eV

  Self-consistency convergence accuracy:
  | Change of charge density      : 0.4948E-01
  | Change of sum of eigenvalues  : -.6636E+00 eV
  | Change of total energy        : 0.4314E+00 eV

  End self-consistency iteration #     3       :  max(cpu_time)    wall_clock(cpu1)
  | Time for this iteration                    :        0.756 s           0.757 s
  | Charge density update                      :        0.140 s           0.138 s
  | Density mixing                             :        0.008 s           0.008 s
  | Hartree multipole update                   :        0.064 s           0.064 s
  | Hartree multipole summation                :        0.256 s           0.257 s
  | Integration                                :        0.276 s           0.275 s
  | Fock matrix evaluation                     :        0.012 s           0.013 s
  | Solution of K.-S. eqns.                    :        0.000 s           0.001 s
  | Total energy evaluation                    :        0.000 s           0.001 s
------------------------------------------------------------

------------------------------------------------------------
          Begin self-consistency iteration #    4

  Date     :  20140812, Time     :  112146.507
------------------------------------------------------------
  Evaluating new KS density.
  Integration grid: deviation in total charge (<rho> - N_e) =  -4.884981E-15
  Pulay mixing of updated and previous charge densities.

  Evaluating partitioned Hartree potential by multipole expansion.
  | Analytical far-field extrapolation by fixed multipoles:
  | Hartree multipole sum: apparent total charge =  -0.865178E-07
  Summing up the Hartree potential.
  Time summed over all CPUs for potential: real work        1.030 s, elapsed        1.039 s
  | RMS charge density error from multipole expansion :   0.165617E-03

  Integrating Hamiltonian matrix: batch-based integration.
  Time summed over all CPUs for integration: real work        1.083 s, elapsed        1.101 s
  Evaluating the exchange matrix ... 

  Updating Kohn-Sham eigenvalues, eigenvectors, occupation numbers, and Fermi level.
  Solving generalized eigenproblem
  Updating Kohn-Sham eigenvalues and eigenfunctions.
  Solving real generalised eigenvalue problem by standard LAPACK (fast)
  Determining occupation numbers for Kohn-Sham eigenstates.
  | Chemical potential (Fermi level) in eV                 : -.61698924E+01
  | Error in electron count due to remaining E_F inaccuracy: 0.00000000E+00
  | Maximum occupation number of highest empty state:  0.00E+00

  Highest occupied state (VBM) at     -9.26284869 eV
  | Occupation number:      2.00000000

  Lowest unoccupied state (CBM) at    -3.07693602 eV
  | Occupation number:      0.00000000

  Overall HOMO-LUMO gap:      6.18591268 eV.

  Total energy components:
  | Sum of eigenvalues            :          -0.68080687 Ha         -18.52569739 eV
  | XC energy correction          :           0.35598412 Ha           9.68682068 eV
  | XC potential correction       :           0.00000000 Ha           0.00000000 eV
  | Free-atom electrostatic energy:          -0.56477928 Ha         -15.36842622 eV
  | Hartree energy correction     :           0.04226198 Ha           1.15000701 eV
  | Entropy correction            :           0.00000000 Ha           0.00000000 eV
  | ---------------------------
  | Total energy                  :          -0.84734005 Ha         -23.05729592 eV
  | Total energy, T -> 0          :          -0.84734005 Ha         -23.05729592 eV  <-- do not rely on this value for anything but (periodic) metals
  | Electronic free energy        :          -0.84734005 Ha         -23.05729592 eV

  Derived energy quantities:
  | Kinetic energy                :           0.65164330 Ha          17.73211647 eV
  | Electrostatic energy          :          -1.14299924 Ha         -31.10259172 eV
  | Energy correction for multipole
  | error in Hartree potential    :          -0.00003305 Ha          -0.00089945 eV
  | Sum of eigenvalues per atom                           :          -9.26284869 eV
  | Total energy (T->0) per atom                          :         -11.52864796 eV  <-- do not rely on this value for anything but (periodic) metals
  | Electronic free energy per atom                       :         -11.52864796 eV

  Self-consistency convergence accuracy:
  | Change of charge density      : 0.3160E-02
  | Change of sum of eigenvalues  : -.6792E-01 eV
  | Change of total energy        : -.1514E-01 eV

  End self-consistency iteration #     4       :  max(cpu_time)    wall_clock(cpu1)
  | Time for this iteration                    :        0.768 s           0.769 s
  | Charge density update                      :        0.140 s           0.139 s
  | Density mixing                             :        0.012 s           0.012 s
  | Hartree multipole update                   :        0.068 s           0.067 s
  | Hartree multipole summation                :        0.264 s           0.261 s
  | Integration                                :        0.276 s           0.275 s
  | Fock matrix evaluation                     :        0.012 s           0.012 s
  | Solution of K.-S. eqns.                    :        0.004 s           0.001 s
  | Total energy evaluation                    :        0.000 s           0.000 s
------------------------------------------------------------

------------------------------------------------------------
          Begin self-consistency iteration #    5

  Date     :  20140812, Time     :  112147.276
------------------------------------------------------------
  Evaluating new KS density.
  Integration grid: deviation in total charge (<rho> - N_e) =   6.217249E-15
  Pulay mixing of updated and previous charge densities.

  Evaluating partitioned Hartree potential by multipole expansion.
  | Analytical far-field extrapolation by fixed multipoles:
  | Hartree multipole sum: apparent total charge =  -0.863767E-07
  Summing up the Hartree potential.
  Time summed over all CPUs for potential: real work        1.022 s, elapsed        1.034 s
  | RMS charge density error from multipole expansion :   0.165721E-03

  Integrating Hamiltonian matrix: batch-based integration.
  Time summed over all CPUs for integration: real work        1.072 s, elapsed        1.099 s
  Evaluating the exchange matrix ... 

  Updating Kohn-Sham eigenvalues, eigenvectors, occupation numbers, and Fermi level.
  Solving generalized eigenproblem
  Updating Kohn-Sham eigenvalues and eigenfunctions.
  Solving real generalised eigenvalue problem by standard LAPACK (fast)
  Determining occupation numbers for Kohn-Sham eigenstates.
  | Chemical potential (Fermi level) in eV                 : -.61716875E+01
  | Error in electron count due to remaining E_F inaccuracy: 0.00000000E+00
  | Maximum occupation number of highest empty state:  0.00E+00

  Highest occupied state (VBM) at     -9.26453144 eV
  | Occupation number:      2.00000000

  Lowest unoccupied state (CBM) at    -3.07884361 eV
  | Occupation number:      0.00000000

  Overall HOMO-LUMO gap:      6.18568783 eV.

  Total energy components:
  | Sum of eigenvalues            :          -0.68093054 Ha         -18.52906288 eV
  | XC energy correction          :           0.35567433 Ha           9.67839082 eV
  | XC potential correction       :           0.00000000 Ha           0.00000000 eV
  | Free-atom electrostatic energy:          -0.56477928 Ha         -15.36842622 eV
  | Hartree energy correction     :           0.04252443 Ha           1.15714859 eV
  | Entropy correction            :           0.00000000 Ha           0.00000000 eV
  | ---------------------------
  | Total energy                  :          -0.84751107 Ha         -23.06194969 eV
  | Total energy, T -> 0          :          -0.84751107 Ha         -23.06194969 eV  <-- do not rely on this value for anything but (periodic) metals
  | Electronic free energy        :          -0.84751107 Ha         -23.06194969 eV

  Derived energy quantities:
  | Kinetic energy                :           0.65086555 Ha          17.71095270 eV
  | Electrostatic energy          :          -1.14270230 Ha         -31.09451157 eV
  | Energy correction for multipole
  | error in Hartree potential    :          -0.00003326 Ha          -0.00090510 eV
  | Sum of eigenvalues per atom                           :          -9.26453144 eV
  | Total energy (T->0) per atom                          :         -11.53097484 eV  <-- do not rely on this value for anything but (periodic) metals
  | Electronic free energy per atom                       :         -11.53097484 eV

  Self-consistency convergence accuracy:
  | Change of charge density      : 0.4811E-04
  | Change of sum of eigenvalues  : -.3365E-02 eV
  | Change of total energy        : -.4654E-02 eV

  End self-consistency iteration #     5       :  max(cpu_time)    wall_clock(cpu1)
  | Time for this iteration                    :        0.776 s           0.773 s
  | Charge density update                      :        0.144 s           0.143 s
  | Density mixing                             :        0.016 s           0.016 s
  | Hartree multipole update                   :        0.064 s           0.066 s
  | Hartree multipole summation                :        0.260 s           0.259 s
  | Integration                                :        0.276 s           0.275 s
  | Fock matrix evaluation                     :        0.012 s           0.012 s
  | Solution of K.-S. eqns.                    :        0.004 s           0.002 s
  | Total energy evaluation                    :        0.000 s           0.000 s
------------------------------------------------------------

------------------------------------------------------------
          Begin self-consistency iteration #    6

  Date     :  20140812, Time     :  112148.050
------------------------------------------------------------
  Evaluating new KS density.
  Integration grid: deviation in total charge (<rho> - N_e) =   7.993606E-15
  Pulay mixing of updated and previous charge densities.

  Evaluating partitioned Hartree potential by multipole expansion.
  | Analytical far-field extrapolation by fixed multipoles:
  | Hartree multipole sum: apparent total charge =  -0.863432E-07
  Summing up the Hartree potential.
  Time summed over all CPUs for potential: real work        1.014 s, elapsed        1.023 s
  | RMS charge density error from multipole expansion :   0.165462E-03

  Integrating Hamiltonian matrix: batch-based integration.
  Time summed over all CPUs for integration: real work        1.076 s, elapsed        1.099 s
  Evaluating the exchange matrix ... 

  Updating Kohn-Sham eigenvalues, eigenvectors, occupation numbers, and Fermi level.
  Solving generalized eigenproblem
  Updating Kohn-Sham eigenvalues and eigenfunctions.
  Solving real generalised eigenvalue problem by standard LAPACK (fast)
  Determining occupation numbers for Kohn-Sham eigenstates.
  | Chemical potential (Fermi level) in eV                 : -.61708861E+01
  | Error in electron count due to remaining E_F inaccuracy: 0.00000000E+00
  | Maximum occupation number of highest empty state:  0.00E+00

  Highest occupied state (VBM) at     -9.26377463 eV
  | Occupation number:      2.00000000

  Lowest unoccupied state (CBM) at    -3.07799761 eV
  | Occupation number:      0.00000000

  Overall HOMO-LUMO gap:      6.18577702 eV.

  Total energy components:
  | Sum of eigenvalues            :          -0.68087492 Ha         -18.52754925 eV
  | XC energy correction          :           0.35567951 Ha           9.67853196 eV
  | XC potential correction       :           0.00000000 Ha           0.00000000 eV
  | Free-atom electrostatic energy:          -0.56477928 Ha         -15.36842622 eV
  | Hartree energy correction     :           0.04242098 Ha           1.15433360 eV
  | Entropy correction            :           0.00000000 Ha           0.00000000 eV
  | ---------------------------
  | Total energy                  :          -0.84755371 Ha         -23.06310992 eV
  | Total energy, T -> 0          :          -0.84755371 Ha         -23.06310992 eV  <-- do not rely on this value for anything but (periodic) metals
  | Electronic free energy        :          -0.84755371 Ha         -23.06310992 eV

  Derived energy quantities:
  | Kinetic energy                :           0.65107909 Ha          17.71676338 eV
  | Electrostatic energy          :          -1.14295329 Ha         -31.10134134 eV
  | Energy correction for multipole
  | error in Hartree potential    :          -0.00003319 Ha          -0.00090316 eV
  | Sum of eigenvalues per atom                           :          -9.26377463 eV
  | Total energy (T->0) per atom                          :         -11.53155496 eV  <-- do not rely on this value for anything but (periodic) metals
  | Electronic free energy per atom                       :         -11.53155496 eV

  Self-consistency convergence accuracy:
  | Change of charge density      : 0.7169E-04
  | Change of sum of eigenvalues  : 0.1514E-02 eV
  | Change of total energy        : -.1160E-02 eV

  End self-consistency iteration #     6       :  max(cpu_time)    wall_clock(cpu1)
  | Time for this iteration                    :        0.772 s           0.772 s
  | Charge density update                      :        0.140 s           0.141 s
  | Density mixing                             :        0.020 s           0.020 s
  | Hartree multipole update                   :        0.064 s           0.064 s
  | Hartree multipole summation                :        0.260 s           0.257 s
  | Integration                                :        0.276 s           0.275 s
  | Fock matrix evaluation                     :        0.012 s           0.013 s
  | Solution of K.-S. eqns.                    :        0.004 s           0.001 s
  | Total energy evaluation                    :        0.000 s           0.000 s
------------------------------------------------------------

------------------------------------------------------------
          Begin self-consistency iteration #    7

  Date     :  20140812, Time     :  112148.823
------------------------------------------------------------
  Evaluating new KS density.
  Integration grid: deviation in total charge (<rho> - N_e) =   6.217249E-15
  Pulay mixing of updated and previous charge densities.

  Evaluating partitioned Hartree potential by multipole expansion.
  | Analytical far-field extrapolation by fixed multipoles:
  | Hartree multipole sum: apparent total charge =  -0.863412E-07
  Summing up the Hartree potential.
  Time summed over all CPUs for potential: real work        1.025 s, elapsed        1.033 s
  | RMS charge density error from multipole expansion :   0.165465E-03

  Integrating Hamiltonian matrix: batch-based integration.
  Time summed over all CPUs for integration: real work        1.076 s, elapsed        1.101 s
  Evaluating the exchange matrix ... 

  Updating Kohn-Sham eigenvalues, eigenvectors, occupation numbers, and Fermi level.
  Solving generalized eigenproblem
  Updating Kohn-Sham eigenvalues and eigenfunctions.
  Solving real generalised eigenvalue problem by standard LAPACK (fast)
  Determining occupation numbers for Kohn-Sham eigenstates.
  | Chemical potential (Fermi level) in eV                 : -.61708948E+01
  | Error in electron count due to remaining E_F inaccuracy: 0.00000000E+00
  | Maximum occupation number of highest empty state:  0.00E+00

  Highest occupied state (VBM) at     -9.26378745 eV
  | Occupation number:      2.00000000

  Lowest unoccupied state (CBM) at    -3.07800219 eV
  | Occupation number:      0.00000000

  Overall HOMO-LUMO gap:      6.18578525 eV.

  Total energy components:
  | Sum of eigenvalues            :          -0.68087586 Ha         -18.52757489 eV
  | XC energy correction          :           0.35568478 Ha           9.67867534 eV
  | XC potential correction       :           0.00000000 Ha           0.00000000 eV
  | Free-atom electrostatic energy:          -0.56477928 Ha         -15.36842622 eV
  | Hartree energy correction     :           0.04242193 Ha           1.15435934 eV
  | Entropy correction            :           0.00000000 Ha           0.00000000 eV
  | ---------------------------
  | Total energy                  :          -0.84754844 Ha         -23.06296644 eV
  | Total energy, T -> 0          :          -0.84754844 Ha         -23.06296644 eV  <-- do not rely on this value for anything but (periodic) metals
  | Electronic free energy        :          -0.84754844 Ha         -23.06296644 eV

  Derived energy quantities:
  | Kinetic energy                :           0.65109031 Ha          17.71706864 eV
  | Electrostatic energy          :          -1.14295396 Ha         -31.10135974 eV
  | Energy correction for multipole
  | error in Hartree potential    :          -0.00003319 Ha          -0.00090321 eV
  | Sum of eigenvalues per atom                           :          -9.26378745 eV
  | Total energy (T->0) per atom                          :         -11.53148322 eV  <-- do not rely on this value for anything but (periodic) metals
  | Electronic free energy per atom                       :         -11.53148322 eV

  Self-consistency convergence accuracy:
  | Change of charge density      : 0.9040E-06
  | Change of sum of eigenvalues  : -.2564E-04 eV
  | Change of total energy        : 0.1435E-03 eV

  End self-consistency iteration #     7       :  max(cpu_time)    wall_clock(cpu1)
  | Time for this iteration                    :        0.784 s           0.782 s
  | Charge density update                      :        0.144 s           0.143 s
  | Density mixing                             :        0.024 s           0.024 s
  | Hartree multipole update                   :        0.068 s           0.066 s
  | Hartree multipole summation                :        0.260 s           0.259 s
  | Integration                                :        0.276 s           0.276 s
  | Fock matrix evaluation                     :        0.012 s           0.012 s
  | Solution of K.-S. eqns.                    :        0.004 s           0.001 s
  | Total energy evaluation                    :        0.000 s           0.000 s
------------------------------------------------------------

------------------------------------------------------------
          Begin self-consistency iteration #    8

  Date     :  20140812, Time     :  112149.606
------------------------------------------------------------
  Evaluating new KS density.
  Integration grid: deviation in total charge (<rho> - N_e) =  -2.442491E-15
  Pulay mixing of updated and previous charge densities.

  Evaluating partitioned Hartree potential by multipole expansion.
  | Analytical far-field extrapolation by fixed multipoles:
  | Hartree multipole sum: apparent total charge =  -0.863412E-07
  Summing up the Hartree potential.
  Time summed over all CPUs for potential: real work        1.021 s, elapsed        1.027 s
  | RMS charge density error from multipole expansion :   0.165466E-03

  Integrating Hamiltonian matrix: batch-based integration.
  Time summed over all CPUs for integration: real work        1.086 s, elapsed        1.123 s
  Evaluating the exchange matrix ... 

  Updating Kohn-Sham eigenvalues, eigenvectors, occupation numbers, and Fermi level.
  Solving generalized eigenproblem
  Updating Kohn-Sham eigenvalues and eigenfunctions.
  Solving real generalised eigenvalue problem by standard LAPACK (fast)
  Determining occupation numbers for Kohn-Sham eigenstates.
  | Chemical potential (Fermi level) in eV                 : -.61708964E+01
  | Error in electron count due to remaining E_F inaccuracy: 0.00000000E+00
  | Maximum occupation number of highest empty state:  0.00E+00

  Highest occupied state (VBM) at     -9.26378880 eV
  | Occupation number:      2.00000000

  Lowest unoccupied state (CBM) at    -3.07800407 eV
  | Occupation number:      0.00000000

  Overall HOMO-LUMO gap:      6.18578472 eV.

  Total energy components:
  | Sum of eigenvalues            :          -0.68087596 Ha         -18.52757759 eV
  | XC energy correction          :           0.35568450 Ha           9.67866774 eV
  | XC potential correction       :           0.00000000 Ha           0.00000000 eV
  | Free-atom electrostatic energy:          -0.56477928 Ha         -15.36842622 eV
  | Hartree energy correction     :           0.04242226 Ha           1.15436843 eV
  | Entropy correction            :           0.00000000 Ha           0.00000000 eV
  | ---------------------------
  | Total energy                  :          -0.84754848 Ha         -23.06296765 eV
  | Total energy, T -> 0          :          -0.84754848 Ha         -23.06296765 eV  <-- do not rely on this value for anything but (periodic) metals
  | Electronic free energy        :          -0.84754848 Ha         -23.06296765 eV

  Derived energy quantities:
  | Kinetic energy                :           0.65108920 Ha          17.71703848 eV
  | Electrostatic energy          :          -1.14295318 Ha         -31.10133839 eV
  | Energy correction for multipole
  | error in Hartree potential    :          -0.00003319 Ha          -0.00090322 eV
  | Sum of eigenvalues per atom                           :          -9.26378880 eV
  | Total energy (T->0) per atom                          :         -11.53148383 eV  <-- do not rely on this value for anything but (periodic) metals
  | Electronic free energy per atom                       :         -11.53148383 eV

  Self-consistency convergence accuracy:
  | Change of charge density      : 0.1769E-06
  | Change of sum of eigenvalues  : -.2702E-05 eV
  | Change of total energy        : -.1215E-05 eV

  End self-consistency iteration #     8       :  max(cpu_time)    wall_clock(cpu1)
  | Time for this iteration                    :        0.796 s           0.793 s
  | Charge density update                      :        0.144 s           0.143 s
  | Density mixing                             :        0.032 s           0.030 s
  | Hartree multipole update                   :        0.068 s           0.067 s
  | Hartree multipole summation                :        0.260 s           0.258 s
  | Integration                                :        0.280 s           0.281 s
  | Fock matrix evaluation                     :        0.012 s           0.012 s
  | Solution of K.-S. eqns.                    :        0.004 s           0.001 s
  | Total energy evaluation                    :        0.000 s           0.000 s
------------------------------------------------------------

------------------------------------------------------------
          Begin self-consistency iteration #    9

  Date     :  20140812, Time     :  112150.399
------------------------------------------------------------
  Evaluating new KS density.
  Integration grid: deviation in total charge (<rho> - N_e) =  -7.105427E-15
  Pulay mixing of updated and previous charge densities.

  Evaluating partitioned Hartree potential by multipole expansion.
  | Analytical far-field extrapolation by fixed multipoles:
  | Hartree multipole sum: apparent total charge =  -0.863412E-07
  Summing up the Hartree potential.
  Time summed over all CPUs for potential: real work        1.020 s, elapsed        1.029 s
  | RMS charge density error from multipole expansion :   0.165466E-03

  Integrating Hamiltonian matrix: batch-based integration.
  Time summed over all CPUs for integration: real work        1.064 s, elapsed        1.090 s
  Evaluating the exchange matrix ... 

  Updating Kohn-Sham eigenvalues, eigenvectors, occupation numbers, and Fermi level.
  Solving generalized eigenproblem
  Updating Kohn-Sham eigenvalues and eigenfunctions.
  Solving real generalised eigenvalue problem by standard LAPACK (fast)
  Determining occupation numbers for Kohn-Sham eigenstates.
  | Chemical potential (Fermi level) in eV                 : -.61708958E+01
  | Error in electron count due to remaining E_F inaccuracy: 0.00000000E+00
  | Maximum occupation number of highest empty state:  0.00E+00

  Highest occupied state (VBM) at     -9.26378829 eV
  | Occupation number:      2.00000000

  Lowest unoccupied state (CBM) at    -3.07800339 eV
  | Occupation number:      0.00000000

  Overall HOMO-LUMO gap:      6.18578490 eV.

  Total energy components:
  | Sum of eigenvalues            :          -0.68087592 Ha         -18.52757659 eV
  | XC energy correction          :           0.35568451 Ha           9.67866807 eV
  | XC potential correction       :           0.00000000 Ha           0.00000000 eV
  | Free-atom electrostatic energy:          -0.56477928 Ha         -15.36842622 eV
  | Hartree energy correction     :           0.04242217 Ha           1.15436604 eV
  | Entropy correction            :           0.00000000 Ha           0.00000000 eV
  | ---------------------------
  | Total energy                  :          -0.84754852 Ha         -23.06296871 eV
  | Total energy, T -> 0          :          -0.84754852 Ha         -23.06296871 eV  <-- do not rely on this value for anything but (periodic) metals
  | Electronic free energy        :          -0.84754852 Ha         -23.06296871 eV

  Derived energy quantities:
  | Kinetic energy                :           0.65108935 Ha          17.71704262 eV
  | Electrostatic energy          :          -1.14295336 Ha         -31.10134326 eV
  | Energy correction for multipole
  | error in Hartree potential    :          -0.00003319 Ha          -0.00090322 eV
  | Sum of eigenvalues per atom                           :          -9.26378829 eV
  | Total energy (T->0) per atom                          :         -11.53148436 eV  <-- do not rely on this value for anything but (periodic) metals
  | Electronic free energy per atom                       :         -11.53148436 eV

  Self-consistency convergence accuracy:
  | Change of charge density      : 0.4544E-07
  | Change of sum of eigenvalues  : 0.1002E-05 eV
  | Change of total energy        : -.1060E-05 eV

  End self-consistency iteration #     9       :  max(cpu_time)    wall_clock(cpu1)
  | Time for this iteration                    :        0.776 s           0.777 s
  | Charge density update                      :        0.136 s           0.135 s
  | Density mixing                             :        0.032 s           0.031 s
  | Hartree multipole update                   :        0.068 s           0.066 s
  | Hartree multipole summation                :        0.260 s           0.258 s
  | Integration                                :        0.272 s           0.273 s
  | Fock matrix evaluation                     :        0.012 s           0.012 s
  | Solution of K.-S. eqns.                    :        0.004 s           0.001 s
  | Total energy evaluation                    :        0.000 s           0.000 s
------------------------------------------------------------

------------------------------------------------------------
          Begin self-consistency iteration #   10

  Date     :  20140812, Time     :  112151.176
------------------------------------------------------------
  Evaluating new KS density.
  Integration grid: deviation in total charge (<rho> - N_e) =   5.773160E-15
  Pulay mixing of updated and previous charge densities.

  Evaluating partitioned Hartree potential by multipole expansion.
  | Analytical far-field extrapolation by fixed multipoles:
  | Hartree multipole sum: apparent total charge =  -0.863412E-07
  Summing up the Hartree potential.
  Time summed over all CPUs for potential: real work        1.018 s, elapsed        1.025 s
  | RMS charge density error from multipole expansion :   0.165466E-03

  Integrating Hamiltonian matrix: batch-based integration.
  Time summed over all CPUs for integration: real work        1.075 s, elapsed        1.092 s
  Evaluating the exchange matrix ... 

  Updating Kohn-Sham eigenvalues, eigenvectors, occupation numbers, and Fermi level.
  Solving generalized eigenproblem
  Updating Kohn-Sham eigenvalues and eigenfunctions.
  Solving real generalised eigenvalue problem by standard LAPACK (fast)
  Determining occupation numbers for Kohn-Sham eigenstates.
  | Chemical potential (Fermi level) in eV                 : -.61708959E+01
  | Error in electron count due to remaining E_F inaccuracy: 0.00000000E+00
  | Maximum occupation number of highest empty state:  0.00E+00

  Highest occupied state (VBM) at     -9.26378839 eV
  | Occupation number:      2.00000000

  Lowest unoccupied state (CBM) at    -3.07800346 eV
  | Occupation number:      0.00000000

  Overall HOMO-LUMO gap:      6.18578493 eV.

  Total energy components:
  | Sum of eigenvalues            :          -0.68087593 Ha         -18.52757678 eV
  | XC energy correction          :           0.35568451 Ha           9.67866807 eV
  | XC potential correction       :           0.00000000 Ha           0.00000000 eV
  | Free-atom electrostatic energy:          -0.56477928 Ha         -15.36842622 eV
  | Hartree energy correction     :           0.04242219 Ha           1.15436644 eV
  | Entropy correction            :           0.00000000 Ha           0.00000000 eV
  | ---------------------------
  | Total energy                  :          -0.84754851 Ha         -23.06296849 eV
  | Total energy, T -> 0          :          -0.84754851 Ha         -23.06296849 eV  <-- do not rely on this value for anything but (periodic) metals
  | Electronic free energy        :          -0.84754851 Ha         -23.06296849 eV

  Derived energy quantities:
  | Kinetic energy                :           0.65108933 Ha          17.71704218 eV
  | Electrostatic energy          :          -1.14295333 Ha         -31.10134260 eV
  | Energy correction for multipole
  | error in Hartree potential    :          -0.00003319 Ha          -0.00090322 eV
  | Sum of eigenvalues per atom                           :          -9.26378839 eV
  | Total energy (T->0) per atom                          :         -11.53148424 eV  <-- do not rely on this value for anything but (periodic) metals
  | Electronic free energy per atom                       :         -11.53148424 eV

  Self-consistency convergence accuracy:
  | Change of charge density      : 0.5676E-08
  | Change of sum of eigenvalues  : -.1935E-06 eV
  | Change of total energy        : 0.2223E-06 eV

  Writing Kohn-Sham eigenvalues.

  State    Occupation    Eigenvalue [Ha]    Eigenvalue [eV]
      1       2.00000          -0.340438           -9.26379
      2       0.00000          -0.113115           -3.07800
      3       0.00000           0.196332            5.34246
      4       0.00000           0.203552            5.53892
      5       0.00000           0.337200            9.17569
      6       0.00000           0.352758            9.59904
      7       0.00000           0.352758            9.59904
      8       0.00000           0.434963           11.83595
      9       0.00000           0.434963           11.83595
     10       0.00000           0.605978           16.48950
     11       0.00000           0.923952           25.14202
     12       0.00000           1.012814           27.56007
     13       0.00000           1.120878           30.50064
     14       0.00000           1.120878           30.50064
     15       0.00000           1.173010           31.91923
     16       0.00000           1.191094           32.41133
     17       0.00000           1.191094           32.41133
     18       0.00000           1.231675           33.51559
     19       0.00000           1.231675           33.51559
     20       0.00000           1.334681           36.31851
     21       0.00000           1.334681           36.31851
     22       0.00000           1.499079           40.79201
     23       0.00000           1.799779           48.97447
     24       0.00000           1.799779           48.97447
     25       0.00000           1.873061           50.96859
     26       0.00000           1.910212           51.97950
     27       0.00000           1.910212           51.97950
     28       0.00000           2.296101           62.48008
     29       0.00000           3.393977           92.35480
     30       0.00000           3.393977           92.35480
     31       0.00000           3.395390           92.39326
     32       0.00000           3.448588           93.84087
     33       0.00000           3.448588           93.84087
     34       0.00000           3.478337           94.65037
     35       0.00000           3.478337           94.65037
     36       0.00000           3.486605           94.87535
     37       0.00000           3.486605           94.87535
     38       0.00000           3.521061           95.81294
     39       0.00000           3.521061           95.81294
     40       0.00000           3.612001           98.28754
     41       0.00000           3.612001           98.28754
     42       0.00000           3.678032          100.08434
     43       0.00000           3.841468          104.53168
     44       0.00000           3.990718          108.59296
     45       0.00000           5.203061          141.58250
     46       0.00000           5.203061          141.58250
     47       0.00000           5.286642          143.85685
     48       0.00000           5.286642          143.85685
     49       0.00000           5.326835          144.95056
     50       0.00000           5.366612          146.03293
     51       0.00000           5.366612          146.03293
     52       0.00000           5.587760          152.05068
     53       0.00000           5.587760          152.05068
     54       0.00000           6.032578          164.15481
     55       0.00000           8.488243          230.97683
     56       0.00000           8.488243          230.97683
     57       0.00000           8.666553          235.82892
     58       0.00000           8.739298          237.80839
     59       0.00000           8.739298          237.80839
     60       0.00000           9.603990          261.33787
     61       0.00000          21.844348          594.41496
     62       0.00000          22.265711          605.88083

  Highest occupied state (VBM) at     -9.26378839 eV
  | Occupation number:      2.00000000

  Lowest unoccupied state (CBM) at    -3.07800346 eV
  | Occupation number:      0.00000000

  Overall HOMO-LUMO gap:      6.18578493 eV.

  Self-consistency cycle converged.

  End self-consistency iteration #    10       :  max(cpu_time)    wall_clock(cpu1)
  | Time for this iteration                    :        0.784 s           0.785 s
  | Charge density update                      :        0.140 s           0.139 s
  | Density mixing                             :        0.036 s           0.035 s
  | Hartree multipole update                   :        0.068 s           0.065 s
  | Hartree multipole summation                :        0.260 s           0.258 s
  | Integration                                :        0.276 s           0.273 s
  | Fock matrix evaluation                     :        0.012 s           0.012 s
  | Solution of K.-S. eqns.                    :        0.000 s           0.001 s
  | Total energy evaluation                    :        0.000 s           0.000 s
------------------------------------------------------------

  Energy and forces in a compact form:
  | Total energy uncorrected      :         -0.230629684883088E+02 eV
  | Total energy corrected        :         -0.230629684883088E+02 eV  <-- do not rely on this value for anything but (periodic) metals
  | Electronic free energy        :         -0.230629684883088E+02 eV

  ------------------------------------ 
  Start decomposition of the XC Energy 
  ------------------------------------ 
  Hartree-Fock part   :          0.355684514 Ha              9.678668074 eV
  ------------------------------------ 
  X Energy            :          0.355684514 Ha              9.678668074 eV
  C Energy GGA        :          0.000000000 Ha              0.000000000 eV
  Total XC Energy     :          0.355684514 Ha              9.678668074 eV
  LDA X and C from self-consistent density 
  X Energy LDA        :         -0.350783538 Ha             -9.545305716 eV
  C Energy LDA        :         -0.075747109 Ha             -2.061183721 eV
  ------------------------------------ 
  End decomposition of the XC Energy 
  ------------------------------------ 
---------------------------------------------
---------------------------------------------
 | MP2 calculation starts ...
---------------------------------------------

  | Note : Resolution of identity applied 
  | Note : Non spin-polarized system 
---------------------------------------------
  | Homo level                                        1
  | Lumo level                                        2
  | Total Number of states                           62
  | Number of k-points                                1
  | Homo-Lumo Gap                            0.22732342 Ha          6.18578493 eV
---------------------------------------------
  The ovlp_3KS matrix takes another      0 MiB x      4 procs =       0.000 GiB.


---------------------------------------------
| Sum of correlation terms 
---------------------------------------------
  | Pair state     1                    :         -2.31832351 eV         -2.31832351 eV

---------------------------------------------
| Correlation energy spectrum 
---------------------------------------------
  |     2    :         -0.11311455        -0.06424955
  |     3    :          0.19633171        -0.00121047
  |     4    :          0.20355161        -0.00523877
  |     5    :          0.33720033        -0.00176530
  |     6    :          0.35275839        -0.00118297
  |     7    :          0.35275839        -0.00118297
  |     8    :          0.43496320        -0.00068007
  |     9    :          0.43496320        -0.00068007
  |    10    :          0.60597813        -0.00057704
  |    11    :          0.92395238        -0.00118130
  |    12    :          1.01281397        -0.00210699
  |    13    :          1.12087805        -0.00014960
  |    14    :          1.12087805        -0.00014960
  |    15    :          1.17301007        -0.00024648
  |    16    :          1.19109430        -0.00009994
  |    17    :          1.19109431        -0.00009994
  |    18    :          1.23167528        -0.00008805
  |    19    :          1.23167529        -0.00008805
  |    20    :          1.33468086        -0.00012230
  |    21    :          1.33468086        -0.00012230
  |    22    :          1.49907877        -0.00027907
  |    23    :          1.79977860        -0.00043662
  |    24    :          1.79977860        -0.00043662
  |    25    :          1.87306115        -0.00043877
  |    26    :          1.91021168        -0.00036608
  |    27    :          1.91021168        -0.00036608
  |    28    :          2.29610081        -0.00023409
  |    29    :          3.39397655        -0.00002588
  |    30    :          3.39397655        -0.00002588
  |    31    :          3.39538989        -0.00002784
  |    32    :          3.44858847        -0.00002168
  |    33    :          3.44858847        -0.00002168
  |    34    :          3.47833729        -0.00001874
  |    35    :          3.47833729        -0.00001874
  |    36    :          3.48660498        -0.00001850
  |    37    :          3.48660498        -0.00001850
  |    38    :          3.52106097        -0.00002010
  |    39    :          3.52106097        -0.00002010
  |    40    :          3.61200081        -0.00002217
  |    41    :          3.61200081        -0.00002217
  |    42    :          3.67803202        -0.00006425
  |    43    :          3.84146845        -0.00024023
  |    44    :          3.99071793        -0.00022585
  |    45    :          5.20306112        -0.00003700
  |    46    :          5.20306112        -0.00003700
  |    47    :          5.28664202        -0.00003494
  |    48    :          5.28664203        -0.00003494
  |    49    :          5.32683522        -0.00003725
  |    50    :          5.36661151        -0.00003410
  |    51    :          5.36661152        -0.00003410
  |    52    :          5.58775978        -0.00003328
  |    53    :          5.58775978        -0.00003328
  |    54    :          6.03257829        -0.00003410
  |    55    :          8.48824256        -0.00004345
  |    56    :          8.48824256        -0.00004345
  |    57    :          8.66655342        -0.00004097
  |    58    :          8.73929783        -0.00004000
  |    59    :          8.73929783        -0.00004000
  |    60    :          9.60399007        -0.00003105
  |    61    :         21.84434831        -0.00000844
  |    62    :         22.26571133        -0.00000807
---------------------------------------------
 
 
 
          ---------------------------------------------
          | MP2 calculation comes to finish ...  
 
          ---------------------------------------------
          | Total time for calculating MP2 correction              :        0.000 s

          ---------------------------------------------

---------------------------------------------
  | HF Energy                      :         -0.84754851 Ha        -23.06296849 eV
  | MP2 correction                 :         -0.08519682 Ha         -2.31832351 eV
---------------------------------------------
  | Total Energy + MP2 correction  :         -0.93274534 Ha        -25.38129200 eV
---------------------------------------------

------------------------------------------------------------------------------
  Final output of selected total energy values:

  The following output summarizes some interesting total energy values
  at the end of a run (AFTER all relaxation, molecular dynamics, etc.).

  | Total energy of the DFT / Hartree-Fock s.c.f. calculation      :            -23.062968488 eV
  | Final zero-broadening corrected energy (caution - metals only) :            -23.062968488 eV
  | Total energy after the post-s.c.f. correlation calculation     :            -25.381291998 eV
  | For reference only, the value of 1 Hartree used in FHI-aims is :             27.211384500 eV

  Before relying on these values, please be sure to understand exactly which
  total energy value is referred to by a given number. Different objects may
  all carry the same name 'total energy'. Definitions:

  Total energy of the DFT / Hartree-Fock s.c.f. calculation:
  | Note that this energy does not include ANY quantities calculated after the
  | s.c.f. cycle, in particular not ANY RPA, MP2, etc. many-body perturbation terms.

  Final zero-broadening corrected energy:
  | For metallic systems only, a broadening of the occupation numbers at the Fermi
  | level can be extrapolated back to zero broadening by an electron-gas inspired
  | formula. For all systems that are not real metals, this value can be
  | meaningless and should be avoided.

  Total energy of the post-s.c.f. correlation calculation        :
  | The actual meaning of this energy depends on the setting for the 'total_energy_method'
  | keyword (MP2, RPA, rPT2, etc). If not sure, compare to the results listed above.

------------------------------------------------------------------------------

  Methods described in the following list of references were used in this FHI-aims run.
  If you publish the results, please make sure to cite these reference if they apply.
  FHI-aims is an academic code, and for our developers (often, Ph.D. students
  and postdocs), scientific credit in the community is essential.
  Thank you for helping us!

  For any use of FHI-aims, please cite:

    Volker Blum, Ralf Gehrke, Felix Hanke, Paula Havu, Ville Havu,
    Xinguo Ren, Karsten Reuter, and Matthias Scheffler,
    "Ab initio molecular simulations with numeric atom-centered orbitals"
    Computer Physics Communications 180, 2175-2196 (2009).
    http://dx.doi.org/10.1016/j.cpc.2009.06.022

  For Hartree-Fock, hybrid functionals, or many-body perturbation theory used in your run, please cite:

    Xinguo Ren, Patrick Rinke, Volker Blum, Juergen Wieferink, Alex Tkatchenko,
    Andrea Sanfilippo, Karsten Reuter, and Matthias Scheffler,
    "Resolution-of-identity approach to Hartree-Fock, hybrid density functionals,
     RPA, MP2, and GW with numeric atom-centered orbital basis functions"
    New Journal of Physics 14, 053020 (2012).
    http://dx.doi.org/10.1088/1367-2630/14/5/053020

  For the NAO-VCC-nZ basis sets used in this calculation, please cite:

    Igor Ying Zhang, Xinguo Ren, Patrick Rinke, Volker Blum, and Matthias Scheffler,
    "Numeric atom-centered-orbital basis sets with valence-correlation consistency from H to Ar"
    New Journal of Physics 15, 123033 (2013).
    http://dx.doi.org/10.1088/1367-2630/15/12/123033

  For the real-space grid partitioning and parallelization used in this calculation, please cite:

    Ville Havu, Volker Blum, Paula Havu, and Matthias Scheffler,
    "Efficient O(N) integration for all-electron electronic
    structure calculation using numerically tabulated basis functions"
    Journal of Computational Physics 228, 8367-8379 (2009).
    http://dx.doi.org/10.1016/j.jcp.2009.08.008

  Of course, there are many other important community references, e.g., those cited in the
  above references. Our list is limited to references that describe implementations in the FHI-aims
  code. The reason is purely practical (length of this list) - please credit others as well.

------------------------------------------------------------
          Leaving FHI-aims.
          Date     :  20140812, Time     :  112151.992

          Computational steps:
          | Number of self-consistency cycles          :           10

          Detailed time accounting                     :  max(cpu_time)    wall_clock(cpu1)
          | Total time                                 :       32.554 s          32.592 s
          | Preparation time                           :        0.164 s           0.197 s
          | Grid partitioning                          :        0.288 s           0.290 s
          | Preloading free-atom quantities on grid    :        0.068 s           0.070 s
          | Free-atom superposition energy             :        0.036 s           0.036 s
          | Total time for integrations                :        3.244 s           3.236 s
          | Product basis setup: Total time            :        0.000 s           0.000 s
          | Product basis: | 3-center integrations     :       23.161 s          23.183 s
          | Product basis: | 2-center integrations     :        0.256 s           0.256 s
          | Product basis: | 2-center linear algebra   :        0.080 s           0.080 s
          | Product basis: | 3-center x 2-center       :        0.028 s           0.025 s
          | Total time evaluating exchange matrix      :        0.124 s           0.123 s
          | Transforming ovlp_3fn to ovlp_3KS          :        0.012 s           0.010 s
          | Total time for solution of K.-S. equations :        0.036 s           0.019 s
          | Total time for density update              :        1.412 s           1.400 s
          | Total time for mixing                      :        0.192 s           0.182 s
          | Total time for Hartree multipole update    :        0.664 s           0.656 s
          | Total time for Hartree multipole sum       :        2.596 s           2.582 s
          | Total time for total energy evaluation     :        0.004 s           0.003 s

          Have a nice day.
------------------------------------------------------------
