  MPI-parallelism will be employed.
------------------------------------------------------------
          Invoking FHI-aims ...
          Version 072414
          Compiled on 2014/08/06 at 00:00:04 on host theobook58.

          When using FHI-aims, please cite the following reference:

          Volker Blum, Ralf Gehrke, Felix Hanke, Paula Havu,
          Ville Havu, Xinguo Ren, Karsten Reuter, and Matthias Scheffler,
          'Ab Initio Molecular Simulations with Numeric Atom-Centered Orbitals: FHI-aims',
          Computer Physics Communications 180, 2175-2196 (2009)

          For any questions about FHI-aims, please visit the aimsclub website
          with its forums and wiki. Contributions to both the forums and the
          wiki are warmly encouraged - they are for you, and everyone is welcome there.

------------------------------------------------------------

  Date     :  20140812, Time     :  111942.046
  Time zero on CPU 1             :   0.160000000000000E-01  s.
  Internal wall clock time zero  :           177074382.046  s.

  Using        4 parallel tasks.
  Task        0 on host theobook58 reporting.
  Task        1 on host theobook58 reporting.
  Task        2 on host theobook58 reporting.
  Task        3 on host theobook58 reporting.

  Performing system and environment tests:
  | Environment variable OMP_NUM_THREADS correctly set to 1.
  | Stacksize not measured: no C compiler
  | Checking for scalapack...
  | No scalapack compiled in.

  Obtaining array dimensions for all initial allocations:
  
  -----------------------------------------------------------------------
  Parsing control.in (first pass over file, find array dimensions only).
  The contents of control.in will be repeated verbatim below
  unless switched off by setting 'verbatim_writeout .false.' .
  in the first line of control.in .
  -----------------------------------------------------------------------
  
  xc                      hf
  total_energy_method     mp2
  relativistic            none
  occupation_type         integer 0.0001
  mixer                   pulay
  n_max_pulay             10
  charge_mix_param        0.6
  sc_iter_limit           600
  sc_accuracy_rho         1E-6
  sc_accuracy_eev         1E-4
  sc_accuracy_etot        1E-6
  override_illconditioning .true.
  charge                  0
  ################################################################################
  #
  #  FHI-aims code project
  # Igor Ying Zhang and Xinguo Ren, Fritz Haber Institute Berlin, 2012
  #
  #  Suggested "NAO-VCC-4Z" defaults for H atom (to be pasted into control.in file)
  #
  #  Please cite:
  #
  #  Igor Ying Zhang, Xinguo Ren, Patrick Rinke, Volker Blum, and Matthias Scheffler,
  #  "Numeric atom-centered-orbital basis sets with valence-correlation consistency from H to Ar"
  #  New Journal of Physics 15, 123033 (2013).
  #  http://dx.doi.org/10.1088/1367-2630/15/12/123033
  #
  ################################################################################
    species        H
  #     set basis set reference for FHI-aims output
      cite_reference NAO-VCC-2013
  #     global species definitions
      nucleus             1
      mass                1.00794
  #
      l_hartree           6
  #
      cut_pot             4.0  2.0  1.0
      basis_dep_cutoff    0e-4
  #
      radial_base         24 7.0
  radial_multiplier               6
      angular_grids       specified
        division   0.1930   50
        division   0.3175  110
        division   0.4293  194
        division   0.5066  302
        division   0.5626  434
        division   0.5922  590
  #      division   0.6227  974
  #      division   0.6868 1202
        outer_grid  770
  #      outer_grid  434
  ################################################################################
  #
  #  Definition of "minimal" basis
  #
  ################################################################################
  #     valence basis states
      valence      1  s   1.
  #     ion occupancy
      ion_occ      1  s   0.5
  ################################################################################
  
  
   basis_acc              1e-04
  #============================================
  # Optimization in      H for       NAO-VCC-4Z
  #============================================
  # (sp) correlation set
   hydro     1     s      1.15655525
   hydro     1     s      1.68684502
   hydro     1     s      2.46027686
   hydro     2     p      2.92145897
   hydro     2     p      4.14501835
   hydro     2     p      5.88102632
  # polarization set
   hydro     3     d      6.41446874
   hydro     3     d      7.67536483
   hydro     4     f     10.80870049
  # (sp) enhanced minimal set
   hydro     1     s      3.58833335
  
  -----------------------------------------------------------------------
  Completed first pass over input file control.in .
  -----------------------------------------------------------------------
  
  
  -----------------------------------------------------------------------
  Parsing geometry.in (first pass over file, find array dimensions only).
  The contents of geometry.in will be repeated verbatim below
  unless switched off by setting 'verbatim_writeout .false.' .
  in the first line of geometry.in .
  -----------------------------------------------------------------------
  
  atom             0.0             0.0             0.0    H
  atom             0.0             0.0             2.2    H
  
  -----------------------------------------------------------------------
  Completed first pass over input file geometry.in .
  -----------------------------------------------------------------------
  

  Basic array size parameters:
  | Number of species                 :        1
  | Number of atoms                   :        2
  | Max. basis fn. angular momentum   :        3
  | Max. atomic/ionic basis occupied n:        1
  | Max. number of basis fn. types    :        2
  | Max. radial fns per species/type  :       10
  | Max. logarithmic grid size        :     1131
  | Max. radial integration grid size :      149
  | Max. angular integration grid size:      770
  | Max. angular grid division number :        8
  | Radial grid for Hartree potential :     1131
  | Number of spin channels           :        1

------------------------------------------------------------
          Reading file control.in.
------------------------------------------------------------
 
  Hartree-Fock calculation starts ...... 
  Attention: this version of Hartree-Fock employs an auxiliary basis. 
 
  MP2 correlation energy calculation will be started after the DFT/HF calculation.
  Non-relativistic treatment of kinetic energy.
  Occupation type: Integer occupation.
  Using pulay charge density mixing.
  Pulay mixing - number of memorized iterations:   10
  Charge density mixing - mixing parameter:     0.6000
  Maximum number of s.-c. iterations  :   600
  Convergence accuracy of self-consistent charge density: 0.1000E-05
  Convergence accuracy of sum of eigenvalues: 0.1000E-03
  Convergence accuracy of total energy: 0.1000E-05
  override_illconditioning: Explicitly overriding any built-in checks for an ill-conditioned overlap matrix.
  *** WARNING: If you use this flag, you should really know what you are doing.
  *** DO NOT keep this flag set by default in all your control.in files.
  Charge =   0.000000E+00: Neutral system requested explicitly.
 
  Reading configuration options for species H                   .
  | Found nuclear charge :   1.0000
  | Found atomic mass :    1.00794000000000      amu
  | Found l_max for Hartree potential  :   6
  | Found cutoff potl. onset [A], width [A], scale factor :    4.00000    2.00000    1.00000
  | Threshold for basis-dependent cutoff potential is   0.000000E+00
  | Found data for basic radial integration grid :    24 points, outermost radius =    7.000 A
  | Found multiplier for basic radial grid :   6
  | Found angular grid specification: user-specified.
  | Specified grid contains     7 separate shells.
  | Check grid settings after all constraints further below.
  | Found free-atom valence shell :  1 s   1.000
  | No ionic wave fns used. Skipping ion_occ.
  | Found basis singularity cutoff : 0.1000E-03
  | Found hydrogenic basis function :  1 s   1.157
  | Found hydrogenic basis function :  1 s   1.687
  | Found hydrogenic basis function :  1 s   2.460
  | Found hydrogenic basis function :  2 p   2.921
  | Found hydrogenic basis function :  2 p   4.145
  | Found hydrogenic basis function :  2 p   5.881
  | Found hydrogenic basis function :  3 d   6.414
  | Found hydrogenic basis function :  3 d   7.675
  | Found hydrogenic basis function :  4 f  10.809
  | Found hydrogenic basis function :  1 s   3.588
  Species H                   : Missing cutoff potential type.
  Defaulting to exp(1/x)/(1-x)^2 type cutoff potential.
  Species H : No 'logarithmic' tag. Using default grid for free atom:
  | Default logarithmic grid data [bohr] : 0.1000E-03 0.1000E+03 0.1012E+01
  Species H                   : Using default innermost maximum threshold i_radial=  2 for radial functions.
  Species H                   : Default cutoff onset for free atom density etc. is infinite
  since the product basis is used (hybrid functionals, Hartree-Fock, GW etc.).
  Species H                   : Basic radial grid will be enhanced according to radial_multiplier =   6, to contain   149 grid points.
 
  Finished reading input file 'control.in'. Consistency checks are next.
 
  Species H: Using default value for prodbas_acc =   1.000000E-02.
  Species H: Using default value max_l_prodbas =     5.
  Target number of points in a grid batch is not set. Defaulting to  100
  Method for grid partitioning is not set. Defaulting to parallel hash+maxmin partitioning.
  Batch size limit is not set. Defaulting to    200
  By default, will store active basis functions for each batch.
  If in need of memory, prune_basis_once .false. can be used to disable this option.
  communication_type for Hartree potential was not specified.
  Defaulting to calc_hartree .
  Pulay mixer: Number of initial linear mixing iterations not set.
  Defaulting to    0 iterations.
  Work space size for distributed Hartree potential not set.
  Defaulting to   0.200000E+03 MB.
  Algorithm-dependent basis array size parameters:
  | n_max_pulay                         :       10
  Calculation of forces was not defined in control.in. No forces will be calculated.
  Geometry relaxation not requested: no relaxation will be performed.
  No accuracy limit for integral partition fn. given. Defaulting to 0.1000E-14.
  No threshold value for u(r) in integrations given. Defaulting to 0.1000E-05.
  No accuracy for occupation numbers given. Defaulting to 0.1000E-07.
  No threshold value for occupation numbers given. Defaulting to 0.0000E+00.
  No accuracy for fermi level given. Defaulting to 0.1000E-19.
  Maximum # of iterations to find E_F not set. Defaulting to  200.
  Preferred method for the eigenvalue solver ('KS_method') not specified in 'control.in'.
  Calling blacs routine to test compilation state
  The best choice would be 'elpa', but your version of FHI-aims is compiled without scalapack support.
  Defaulting to 'lapack_fast' instead (serial solution, time will not improve with more CPUs).
  Will not use alltoall communication since running on < 1024 CPUs.
  Threshold for basis singularities not set.
  Default threshold for basis singularities: 0.1000E-04
  partition_type (choice of integration weights) for integrals was not specified.
  | Using a version of the partition function of Stratmann and coworkers ('stratmann_smoother').
  | At each grid point, the set of atoms used to build the partition table is smoothly restricted to
  | only those atoms whose free-atom density would be non-zero at that grid point.
  Partitioning for Hartree potential was not defined. Using partition_type for integrals.
  | Adjusted default value of keyword multip_moments_threshold to:       0.10000000E-11
  | This value may affect high angular momentum components of the Hartree potential in periodic systems.
  Spin handling was not defined in control.in. Defaulting to unpolarized case.
  Threshold for auxiliary basis singularities not set.
  Default threshold for auxiliary basis singularities: 0.1000E-04
  No q(lm)/r^(l+1) cutoff set for long-range Hartree potential.
  | Using default value of  0.100000E-09 .
  | Verify using the multipole_threshold keyword.
  Defaulting to new monopole extrapolation.
  Density update method: automatic selection selected.
  Default to 1D ("use_logsbt") integrations for auxiliary 2-center integrals.
  Default onset of logarithmic r-grid for SBT is-38.000000000000
  Default onset of logarithmic k-grid for SBT is-25.000000000000
  Default range of logarithmic r- and k-grid for SBT is 45.000000000000
  Default number of logarithmic r- and k-grid for SBT is  4096
------------------------------------------------------------


------------------------------------------------------------
          Reading geometry description geometry.in.
------------------------------------------------------------
  Input structure read successfully.
  The structure contains        2 atoms,  and a total of          2.000 electrons.

  Input geometry:
  | No unit cell requested.
  | Atomic structure:
  |       Atom                x [A]            y [A]            z [A]
  |    1: Species H              0.000000         0.000000         0.000000
  |    2: Species H              0.000000         0.000000         2.200000
  |

  | The smallest distance between any two atoms is         2.20000000 AA.
  |
  | The first atom of this pair is atom number                      1 .
  | The second atom of this pair is atom number                     2 .

  Number of empty states per atom not set in control.in .
  | Since you are using a method that relies on the unoccupied spectrum
  | (MP2,GW,RPA et al.), will use the full Hamiltonian size (see below)
  | as the max. possible number of states (occupied plus empty).

  Structure-dependent array size parameters: 
  | Maximum number of distinct radial functions  :       11
  | Maximum number of basis functions            :       62
  | Number of Kohn-Sham states (occupied + empty):       62
------------------------------------------------------------

------------------------------------------------------------
          Preparing all fixed parts of the calculation.
------------------------------------------------------------
  Determining machine precision:
    2.225073858507201E-308
  Setting up grids for atomic and cluster calculations.

  Creating wave function, potential, and density for free atoms.

  Species: H

  List of occupied orbitals and eigenvalues:
    n    l              occ      energy [Ha]    energy [eV]
    1    0           1.0000        -0.233457        -6.3527

  Creating fixed part of basis set: Ionic, confined, hydrogenic.
 
  H                    hydrogenic:
 
  List of hydrogenic basis orbitals: 
    n    l      effective z      eigenvalue [eV]  inner max. [A]     outer max. [A]     outer radius [A]   
    1    0         1.156555       -18.1992           0.460320           0.460320           5.243229
    1    0         1.686845       -38.7143           0.315118           0.315118           4.932336
    1    0         2.460277       -82.3547           0.215718           0.215718           3.815562
    2    1         2.921459       -29.0309           0.723605           0.723605           5.243229
    2    1         4.145018       -58.4405           0.507614           0.507614           4.813203
    2    1         5.881026      -117.6432           0.360475           0.360475           3.678162
    3    2         6.414469       -62.2013           0.741515           0.741515           4.993004
    3    2         7.675365       -89.0587           0.617279           0.617279           4.583499
    4    3        10.808700       -99.3454           0.778676           0.778676           4.696947
    1    0         3.588333      -175.1887           0.147673           0.147673           2.644120
 

  Adding cutoff potential to free-atom effective potential.
  Creating atomic-like basis functions for current effective potential.

  Species H                   :

  List of atomic basis orbitals and eigenvalues:
    n    l      energy [Ha]    energy [eV]    outer radius [A]
    1    0        -0.233418        -6.3516       5.373006

  Assembling full basis from fixed parts.
  | Species H :   atomic orbital   1 s accepted.
  | Species H :    hydro orbital   1 s accepted.
  | Species H :    hydro orbital   1 s accepted.
  | Species H :    hydro orbital   1 s accepted.
  | Species H :    hydro orbital   1 s accepted.
  | Species H :    hydro orbital   2 p accepted.
  | Species H :    hydro orbital   2 p accepted.
  | Species H :    hydro orbital   2 p accepted.
  | Species H :    hydro orbital   3 d accepted.
  | Species H :    hydro orbital   3 d accepted.
  | Species H :    hydro orbital   4 f accepted.
 
  Basis size parameters after reduction:
  | Total number of radial functions:       11
  | Total number of basis functions :       62
 
  Testing on-site integration grid accuracy.
  |  Species  Function  <phi|h_atom|phi> (log., in eV)  <phi|h_atom|phi> (rad., in eV)
           1        1                 -6.3519216712                 -6.3519215989
           1        2                  8.4716038567                  8.4716058028
           1        3                 58.3749927434                 58.3750109815
           1        4                178.9024737125                178.9026031671
           1        5                456.3642310330                456.3649721232
           1        6                 16.2415699263                 16.2415699338
           1        7                 68.2932618880                 68.2932619123
           1        8                188.3801588017                188.3801587562
           1        9                 49.9849006789                 49.9849006869
           1       10                114.3821731125                114.3821730675
           1       11                 88.0899419283                 88.0899419237

  Preparing densities etc. for the partition functions (integrals / Hartree potential).

  Preparations completed.
  max(cpu_time)          :      0.184 s.
  Wall clock time (cpu1) :      0.205 s.
------------------------------------------------------------

------------------------------------------------------------
          Begin self-consistency loop: Initialization.

          Date     :  20140812, Time     :  111942.255
------------------------------------------------------------

  Initializing index lists of integration centers etc. from given atomic structure:
  | Number of centers in hartree potential         :         2
  | Number of centers in hartree multipole         :         2
  | Number of centers in electron density summation:         2
  | Number of centers in basis integrals           :         2
  | Number of centers in integrals                 :         2
  Partitioning the integration grid into batches with parallel hashing+maxmin method.
  | Number of batches:     1942
  | Maximal batch size:     150
  | Minimal batch size:      65
  | Average batch size:      74.358
  | Standard deviation of batch sizes:      16.469

  Integration load balanced across     4 MPI tasks.
  Work distribution over tasks is as follows:
  Task     0 has      36142 integration points.
  Task     1 has      36094 integration points.
  Task     2 has      36096 integration points.
  Task     3 has      36072 integration points.
  Initializing partition tables, free-atom densities, potentials, etc. across the integration grid (initialize_grid_storage).
  | Original list of interatomic distances with           2 x          2 entries is created.
  | Net number of integration points:   144404
  | of which are non-zero points    :   138250
  Obtaining max. number of non-zero basis functions in each batch (get_n_compute_maxes).
  | Maximal number of non-zero basis functions:       62 in task     0
  | Maximal number of non-zero basis functions:       62 in task     1
  | Maximal number of non-zero basis functions:       62 in task     2
  | Maximal number of non-zero basis functions:       62 in task     3
  Selecting the method for density update.
  Loop over occupied states selected for charge density update.
  Integrating Hamiltonian matrix: batch-based integration.
  Time summed over all CPUs for integration: real work        1.174 s, elapsed        1.186 s
  Integrating overlap matrix.
  Time summed over all CPUs for integration: real work        0.741 s, elapsed        0.745 s

  Updating Kohn-Sham eigenvalues, eigenvectors, occupation numbers, and Fermi level.
  Solving generalized eigenproblem
  Updating Kohn-Sham eigenvalues and eigenfunctions.
  Transforming overlap matrix and checking for singularities.
  Overlap matrix is nonsingular:
  | Lowest eigenvalue:  0.298249E-01
  Solving real generalised eigenvalue problem by standard LAPACK (fast)
  Determining occupation numbers for Kohn-Sham eigenstates.
  | Chemical potential (Fermi level) in eV                 : -.63626515E+01
  | Error in electron count due to remaining E_F inaccuracy: 0.00000000E+00
  | Maximum occupation number of highest empty state:  0.00E+00

  Writing Kohn-Sham eigenvalues.

  State    Occupation    Eigenvalue [Ha]    Eigenvalue [eV]
      1       2.00000          -0.270901           -7.37158
      2       0.00000          -0.196746           -5.35372
      3       0.00000           0.093978            2.55727
      4       0.00000           0.114737            3.12214
      5       0.00000           0.186196            5.06666
      6       0.00000           0.186196            5.06666
      7       0.00000           0.227421            6.18844
      8       0.00000           0.315999            8.59878
      9       0.00000           0.315999            8.59878
     10       0.00000           0.539250           14.67373
     11       0.00000           0.764028           20.79025
     12       0.00000           0.839322           22.83911
     13       0.00000           0.898013           24.43619
     14       0.00000           0.898013           24.43619
     15       0.00000           0.958707           26.08776
     16       0.00000           0.958707           26.08776
     17       0.00000           1.007188           27.40698
     18       0.00000           1.086019           29.55209
     19       0.00000           1.086019           29.55209
     20       0.00000           1.300384           35.38526
     21       0.00000           1.300384           35.38526
     22       0.00000           1.553239           42.26578
     23       0.00000           1.553239           42.26578
     24       0.00000           1.597085           43.45889
     25       0.00000           1.731716           47.12239
     26       0.00000           1.731716           47.12239
     27       0.00000           1.767716           48.10199
     28       0.00000           2.336212           63.57156
     29       0.00000           3.038480           82.68126
     30       0.00000           3.038480           82.68126
     31       0.00000           3.084522           83.93411
     32       0.00000           3.085558           83.96231
     33       0.00000           3.085558           83.96231
     34       0.00000           3.206909           87.26444
     35       0.00000           3.206909           87.26444
     36       0.00000           3.264295           88.82599
     37       0.00000           3.264295           88.82599
     38       0.00000           3.416059           92.95570
     39       0.00000           3.416059           92.95570
     40       0.00000           3.621933           98.55781
     41       0.00000           3.660523           99.60791
     42       0.00000           3.713589          101.05189
     43       0.00000           3.713589          101.05189
     44       0.00000           3.958785          107.72403
     45       0.00000           4.933696          134.25269
     46       0.00000           4.933696          134.25269
     47       0.00000           4.954186          134.81025
     48       0.00000           4.954186          134.81025
     49       0.00000           5.143430          139.95985
     50       0.00000           5.143430          139.95985
     51       0.00000           5.388876          146.63878
     52       0.00000           5.679105          154.53632
     53       0.00000           5.679105          154.53632
     54       0.00000           6.822313          185.64457
     55       0.00000           8.104136          220.52475
     56       0.00000           8.104136          220.52475
     57       0.00000           8.489749          231.01783
     58       0.00000           8.489749          231.01783
     59       0.00000           8.583809          233.57732
     60       0.00000           9.731139          264.79778
     61       0.00000          21.494696          584.90044
     62       0.00000          22.036820          599.65238

  Highest occupied state (VBM) at     -7.37158016 eV
  | Occupation number:      2.00000000

  Lowest unoccupied state (CBM) at    -5.35372286 eV
  | Occupation number:      0.00000000

  Overall HOMO-LUMO gap:      2.01785730 eV.
  Calculating total energy contributions from superposition of free atom densities.

  Total energy components:
  | Sum of eigenvalues            :          -0.54180118 Ha         -14.74316031 eV
  | XC energy correction          :          -0.47260851 Ha         -12.86033194 eV
  | XC potential correction       :           0.61604693 Ha          16.76348997 eV
  | Free-atom electrostatic energy:          -0.56157326 Ha         -15.28118588 eV
  | Hartree energy correction     :           0.00000000 Ha           0.00000000 eV
  | Entropy correction            :           0.00000000 Ha           0.00000000 eV
  | ---------------------------
  | Total energy                  :          -0.95993602 Ha         -26.12118817 eV
  | Total energy, T -> 0          :          -0.95993602 Ha         -26.12118817 eV  <-- do not rely on this value for anything but (periodic) metals
  | Electronic free energy        :          -0.95993602 Ha         -26.12118817 eV

  Derived energy quantities:
  | Kinetic energy                :           0.79102745 Ha          21.52495221 eV
  | Electrostatic energy          :          -1.27835496 Ha         -34.78580843 eV
  | Energy correction for multipole
  | error in Hartree potential    :           0.00000000 Ha           0.00000000 eV
  | Sum of eigenvalues per atom                           :          -7.37158016 eV
  | Total energy (T->0) per atom                          :         -13.06059408 eV  <-- do not rely on this value for anything but (periodic) metals
  | Electronic free energy per atom                       :         -13.06059408 eV
 
 --------------------------------------------
  Constructing auxiliary basis (full product) ...
 
  Product basis:
  | charge radius: extent of product basis function
  | field radius: extent of its Coulomb potential
  | Species   l  charge radius    field radius  multipol momen
  |    H      5     4.813203 A      4.813203 A  2.676041E-15 a.u.
  |    H      4     4.932336 A      4.932336 A  2.417679E-16 a.u.
  |    H      3     5.054418 A      5.054418 A  ************ a.u.
  |    H      4     5.054418 A      5.054418 A  ************ a.u.
  |    H      3     5.116587 A      5.116587 A  1.642688E-15 a.u.
  |    H      2     5.179521 A      5.179521 A  6.126280E-16 a.u.
  |    H      3     5.179521 A      5.179521 A  ************ a.u.
  |    H      2     5.243229 A      5.243229 A  1.485543E-16 a.u.
  |    H      2     5.243229 A      5.243229 A  1.683301E-16 a.u.
  |    H      2     5.243229 A      5.243229 A  ************ a.u.
  |    H      3     5.243229 A      5.243229 A  ************ a.u.
  |    H      1     5.307721 A      5.307721 A  2.416866E-16 a.u.
  |    H      1     5.307721 A      5.307721 A  1.291012E-16 a.u.
  |    H      2     5.307721 A      5.307721 A  7.871382E-16 a.u.
  |    H      0     5.373006 A      5.373006 A  9.519909E-17 a.u.
  |    H      1     5.373006 A      5.373006 A  2.334090E-16 a.u.
  |    H      1     5.373006 A      5.373006 A  ************ a.u.
  |    H      1     5.373006 A      5.373006 A  ************ a.u.
  |    H      1     5.373006 A      5.373006 A  1.823473E-16 a.u.
  |    H      0     5.373006 A      5.439094 A  ************ a.u.
  |    H      0     5.439094 A      5.439094 A  ************ a.u.
  |    H      0     5.439094 A      5.505995 A  9.305319E-17 a.u.
  |    H      0     5.439094 A      5.505995 A  4.082184E-17 a.u.
  |    H      0     5.439094 A      5.505995 A  3.169850E-16 a.u.
  |    H      0     5.439094 A      5.505995 A  2.711689E-16 a.u.
  |    H      5     4.872405 A  1.325110E+02 A           19.619780 a.u.
  |    H      4     5.054418 A  3.771796E+02 A           14.639479 a.u.
  |    H      3     5.243229 A  1.836978E+03 A           11.555842 a.u.
  |    H      2     5.307721 A  2.095310E+04 A            4.940052 a.u.
  |    H      1     5.373006 A  2.512347E+06 A            1.793689 a.u.
  |    H      0     5.439094 A  4.604132E+12 A            0.692368 a.u.

  | Shrink_full_auxil_basis : there are       31  radial auxiliary wave functions
                            accepted and      90 rejected.
  | Shrink_full_auxil_basis : there are totally     286 partial auxiliary wave functions.
 
  | Number of product basis functions per thread :    72
  | Minimal requirement for computer memories :           0.005 Gbs
 
  Basis pair condensation :      1953  -->       1953
 
 ----------------------------------------------------
  Integrating the 3-basis-function Coulomb matrix ...
  | i_atom:            1
  | i_atom:            2
  Integrating the Coulomb interaction matrix for auxiliary basis functions (by atoms)

  SBT integration errors (all should be 'small'):
  large logFT aliasing -> increase N/lnrange
  large SBT aliasing -> decrease lnk0 & increase lnk0+lnrange
  large SBT ringing -> decrease lnr0 & increase lnr0+lnrange
  |            El't  L: logFT-al.   small-k   large-k   small-r   large-r
  Atomic logSBT for 2-center Coulomb matrix    :  max(cpu_time)    wall_clock(cpu1)
  | Multiplication with kernel                 :        0.020 s           0.012 s
  | Main matrix multiplication                 :        0.068 s           0.046 s
  | Analytic angular integration               :        0.004 s           0.002 s
  | Kernel construction                        :        0.004 s           0.002 s
  | Overall 2-center overlap time              :        0.100 s           0.065 s

  Difference of Coulomb matrix to its transposed:  1.6653E-16
  Task     0: Eigenvalues of the Coulomb matrix range from    1.9999E+00 to    3.6049E-05.
  Task     0: Using      286   eigenvalues out of rank      286   Coulomb matrix (auxiliary basis).
 
  Multiplying V^-0.5 x ovlp_3fn (1d-scalapack)

  Initialize hartree_potential_storage
  Max. number of atoms included in rho_multipole:            2

  End scf initialization - timings             :  max(cpu_time)    wall_clock(cpu1)
  | Time for scf. initialization               :       24.422 s          24.448 s
  | Boundary condition initialization          :        0.000 s           0.000 s
  | Integration                                :        0.484 s           0.483 s
  | Solution of K.-S. eqns.                    :        0.004 s           0.005 s
  | Grid partitioning                          :        0.224 s           0.225 s
  | Preloading free-atom quantities on grid    :        0.068 s           0.067 s
  | Free-atom superposition energy             :        0.036 s           0.037 s
  | Total energy evaluation                    :        0.000 s           0.000 s
  | Product basis setup: Total time            :       23.529 s          23.554 s
  | Product basis: | 3-center integrations     :       23.057 s          23.087 s
  | Product basis: | 2-center integrations     :        0.256 s           0.256 s
  | Product basis: | 2-center linear algebra   :        0.076 s           0.077 s
  | Product basis: | 3-center x 2-center       :        0.024 s           0.024 s
------------------------------------------------------------

------------------------------------------------------------
          Begin self-consistency iteration #    1

  Date     :  20140812, Time     :  112006.703
------------------------------------------------------------
  Evaluating new KS density.
  Integration grid: deviation in total charge (<rho> - N_e) =  -2.442491E-15
  Pulay mixing of updated and previous charge densities.

  Evaluating partitioned Hartree potential by multipole expansion.
  | Analytical far-field extrapolation by fixed multipoles:
  | Hartree multipole sum: apparent total charge =  -0.101228E-06
  Summing up the Hartree potential.
  Time summed over all CPUs for potential: real work        1.007 s, elapsed        1.021 s
  | RMS charge density error from multipole expansion :   0.125423E-03

  Integrating Hamiltonian matrix: batch-based integration.
  Time summed over all CPUs for integration: real work        1.111 s, elapsed        1.122 s
  Evaluating the exchange matrix ... 

  Updating Kohn-Sham eigenvalues, eigenvectors, occupation numbers, and Fermi level.
  Solving generalized eigenproblem
  Updating Kohn-Sham eigenvalues and eigenfunctions.
  Solving real generalised eigenvalue problem by standard LAPACK (fast)
  Determining occupation numbers for Kohn-Sham eigenstates.
  | Chemical potential (Fermi level) in eV                 : -.58621795E+01
  | Error in electron count due to remaining E_F inaccuracy: 0.00000000E+00
  | Maximum occupation number of highest empty state:  0.00E+00

  Writing Kohn-Sham eigenvalues.

  State    Occupation    Eigenvalue [Ha]    Eigenvalue [eV]
      1       2.00000          -0.371184          -10.10042
      2       0.00000          -0.059679           -1.62394
      3       0.00000           0.187059            5.09014
      4       0.00000           0.213561            5.81129
      5       0.00000           0.339453            9.23700
      6       0.00000           0.339453            9.23700
      7       0.00000           0.400643           10.90206
      8       0.00000           0.484435           13.18215
      9       0.00000           0.484435           13.18215
     10       0.00000           0.719987           19.59185
     11       0.00000           0.984028           26.77676
     12       0.00000           1.053280           28.66121
     13       0.00000           1.101314           29.96829
     14       0.00000           1.101314           29.96829
     15       0.00000           1.159131           31.54156
     16       0.00000           1.159131           31.54156
     17       0.00000           1.221265           33.23231
     18       0.00000           1.292304           35.16539
     19       0.00000           1.292304           35.16539
     20       0.00000           1.528439           41.59093
     21       0.00000           1.528439           41.59093
     22       0.00000           1.825564           49.67611
     23       0.00000           1.825564           49.67611
     24       0.00000           1.868656           50.84871
     25       0.00000           1.999799           54.41731
     26       0.00000           1.999799           54.41731
     27       0.00000           2.041950           55.56428
     28       0.00000           2.602755           70.82456
     29       0.00000           3.306645           89.97840
     30       0.00000           3.306645           89.97840
     31       0.00000           3.351933           91.21074
     32       0.00000           3.351933           91.21074
     33       0.00000           3.367735           91.64074
     34       0.00000           3.474249           94.53912
     35       0.00000           3.474249           94.53912
     36       0.00000           3.533203           96.14335
     37       0.00000           3.533203           96.14335
     38       0.00000           3.692711          100.48379
     39       0.00000           3.692711          100.48379
     40       0.00000           3.977421          108.23114
     41       0.00000           4.006462          109.02137
     42       0.00000           4.006462          109.02137
     43       0.00000           4.018811          109.35740
     44       0.00000           4.268831          116.16081
     45       0.00000           5.276368          143.57728
     46       0.00000           5.276368          143.57728
     47       0.00000           5.299858          144.21648
     48       0.00000           5.299858          144.21648
     49       0.00000           5.487104          149.31169
     50       0.00000           5.487104          149.31169
     51       0.00000           5.746095          156.35919
     52       0.00000           6.029406          164.06848
     53       0.00000           6.029406          164.06848
     54       0.00000           7.196440          195.82510
     55       0.00000           8.525860          232.00046
     56       0.00000           8.525860          232.00046
     57       0.00000           8.911924          242.50579
     58       0.00000           8.911924          242.50579
     59       0.00000           9.006700          245.08478
     60       0.00000          10.152926          276.27516
     61       0.00000          22.003764          598.75287
     62       0.00000          22.545451          613.49293

  Highest occupied state (VBM) at    -10.10042242 eV
  | Occupation number:      2.00000000

  Lowest unoccupied state (CBM) at    -1.62393664 eV
  | Occupation number:      0.00000000

  Overall HOMO-LUMO gap:      8.47648578 eV.

  Total energy components:
  | Sum of eigenvalues            :          -0.74236740 Ha         -20.20084484 eV
  | XC energy correction          :           0.40676615 Ha          11.06867019 eV
  | XC potential correction       :           0.00000000 Ha           0.00000000 eV
  | Free-atom electrostatic energy:          -0.56157326 Ha         -15.28118588 eV
  | Hartree energy correction     :          -0.00575954 Ha          -0.15672511 eV
  | Entropy correction            :           0.00000000 Ha           0.00000000 eV
  | ---------------------------
  | Total energy                  :          -0.90293405 Ha         -24.57008564 eV
  | Total energy, T -> 0          :          -0.90293405 Ha         -24.57008564 eV  <-- do not rely on this value for anything but (periodic) metals
  | Electronic free energy        :          -0.90293405 Ha         -24.57008564 eV

  Derived energy quantities:
  | Kinetic energy                :           0.75525813 Ha          20.55161942 eV
  | Electrostatic energy          :          -1.25142603 Ha         -34.05303487 eV
  | Energy correction for multipole
  | error in Hartree potential    :          -0.00001841 Ha          -0.00050102 eV
  | Sum of eigenvalues per atom                           :         -10.10042242 eV
  | Total energy (T->0) per atom                          :         -12.28504282 eV  <-- do not rely on this value for anything but (periodic) metals
  | Electronic free energy per atom                       :         -12.28504282 eV

  Self-consistency convergence accuracy:
  | Change of charge density      : 0.3269E-01
  | Change of sum of eigenvalues  : -.5458E+01 eV
  | Change of total energy        : 0.1551E+01 eV

  End self-consistency iteration #     1       :  max(cpu_time)    wall_clock(cpu1)
  | Time for this iteration                    :        0.756 s           0.756 s
  | Charge density update                      :        0.140 s           0.139 s
  | Density mixing                             :        0.004 s           0.002 s
  | Hartree multipole update                   :        0.064 s           0.063 s
  | Hartree multipole summation                :        0.260 s           0.257 s
  | Integration                                :        0.280 s           0.281 s
  | Fock matrix evaluation                     :        0.012 s           0.012 s
  | Solution of K.-S. eqns.                    :        0.004 s           0.001 s
  | Total energy evaluation                    :        0.000 s           0.000 s
------------------------------------------------------------

------------------------------------------------------------
          Begin self-consistency iteration #    2

  Date     :  20140812, Time     :  112007.459
------------------------------------------------------------
  Evaluating new KS density.
  Integration grid: deviation in total charge (<rho> - N_e) =  -7.105427E-15
  Pulay mixing of updated and previous charge densities.

  Evaluating partitioned Hartree potential by multipole expansion.
  | Analytical far-field extrapolation by fixed multipoles:
  | Hartree multipole sum: apparent total charge =  -0.957924E-07
  Summing up the Hartree potential.
  Time summed over all CPUs for potential: real work        1.009 s, elapsed        1.030 s
  | RMS charge density error from multipole expansion :   0.169171E-03

  Integrating Hamiltonian matrix: batch-based integration.
  Time summed over all CPUs for integration: real work        1.084 s, elapsed        1.095 s
  Evaluating the exchange matrix ... 

  Updating Kohn-Sham eigenvalues, eigenvectors, occupation numbers, and Fermi level.
  Solving generalized eigenproblem
  Updating Kohn-Sham eigenvalues and eigenfunctions.
  Solving real generalised eigenvalue problem by standard LAPACK (fast)
  Determining occupation numbers for Kohn-Sham eigenstates.
  | Chemical potential (Fermi level) in eV                 : -.58812634E+01
  | Error in electron count due to remaining E_F inaccuracy: 0.00000000E+00
  | Maximum occupation number of highest empty state:  0.00E+00

  Highest occupied state (VBM) at    -10.10647839 eV
  | Occupation number:      2.00000000

  Lowest unoccupied state (CBM) at    -1.65604838 eV
  | Occupation number:      0.00000000

  Overall HOMO-LUMO gap:      8.45043000 eV.

  Total energy components:
  | Sum of eigenvalues            :          -0.74281251 Ha         -20.21295678 eV
  | XC energy correction          :           0.40072279 Ha          10.90422183 eV
  | XC potential correction       :           0.00000000 Ha           0.00000000 eV
  | Free-atom electrostatic energy:          -0.56157326 Ha         -15.28118588 eV
  | Hartree energy correction     :          -0.00221342 Ha          -0.06023019 eV
  | Entropy correction            :           0.00000000 Ha           0.00000000 eV
  | ---------------------------
  | Total energy                  :          -0.90587640 Ha         -24.65015101 eV
  | Total energy, T -> 0          :          -0.90587640 Ha         -24.65015101 eV  <-- do not rely on this value for anything but (periodic) metals
  | Electronic free energy        :          -0.90587640 Ha         -24.65015101 eV

  Derived energy quantities:
  | Kinetic energy                :           0.72532612 Ha          19.73712801 eV
  | Electrostatic energy          :          -1.23047973 Ha         -33.48305719 eV
  | Energy correction for multipole
  | error in Hartree potential    :          -0.00002682 Ha          -0.00072994 eV
  | Sum of eigenvalues per atom                           :         -10.10647839 eV
  | Total energy (T->0) per atom                          :         -12.32507551 eV  <-- do not rely on this value for anything but (periodic) metals
  | Electronic free energy per atom                       :         -12.32507551 eV

  Self-consistency convergence accuracy:
  | Change of charge density      : 0.3312E-01
  | Change of sum of eigenvalues  : -.1211E-01 eV
  | Change of total energy        : -.8007E-01 eV

  End self-consistency iteration #     2       :  max(cpu_time)    wall_clock(cpu1)
  | Time for this iteration                    :        0.764 s           0.765 s
  | Charge density update                      :        0.144 s           0.143 s
  | Density mixing                             :        0.008 s           0.004 s
  | Hartree multipole update                   :        0.064 s           0.065 s
  | Hartree multipole summation                :        0.260 s           0.259 s
  | Integration                                :        0.276 s           0.274 s
  | Fock matrix evaluation                     :        0.020 s           0.017 s
  | Solution of K.-S. eqns.                    :        0.004 s           0.002 s
  | Total energy evaluation                    :        0.000 s           0.000 s
------------------------------------------------------------

------------------------------------------------------------
          Begin self-consistency iteration #    3

  Date     :  20140812, Time     :  112008.224
------------------------------------------------------------
  Evaluating new KS density.
  Integration grid: deviation in total charge (<rho> - N_e) =   7.993606E-15
  Pulay mixing of updated and previous charge densities.

  Evaluating partitioned Hartree potential by multipole expansion.
  | Analytical far-field extrapolation by fixed multipoles:
  | Hartree multipole sum: apparent total charge =  -0.104638E-06
  Summing up the Hartree potential.
  Time summed over all CPUs for potential: real work        1.011 s, elapsed        1.025 s
  | RMS charge density error from multipole expansion :   0.281138E-03

  Integrating Hamiltonian matrix: batch-based integration.
  Time summed over all CPUs for integration: real work        1.078 s, elapsed        1.091 s
  Evaluating the exchange matrix ... 

  Updating Kohn-Sham eigenvalues, eigenvectors, occupation numbers, and Fermi level.
  Solving generalized eigenproblem
  Updating Kohn-Sham eigenvalues and eigenfunctions.
  Solving real generalised eigenvalue problem by standard LAPACK (fast)
  Determining occupation numbers for Kohn-Sham eigenstates.
  | Chemical potential (Fermi level) in eV                 : -.59547667E+01
  | Error in electron count due to remaining E_F inaccuracy: 0.00000000E+00
  | Maximum occupation number of highest empty state:  0.00E+00

  Highest occupied state (VBM) at    -10.14522554 eV
  | Occupation number:      2.00000000

  Lowest unoccupied state (CBM) at    -1.76430791 eV
  | Occupation number:      0.00000000

  Overall HOMO-LUMO gap:      8.38091763 eV.

  Total energy components:
  | Sum of eigenvalues            :          -0.74566037 Ha         -20.29045108 eV
  | XC energy correction          :           0.39738775 Ha          10.81347098 eV
  | XC potential correction       :           0.00000000 Ha           0.00000000 eV
  | Free-atom electrostatic energy:          -0.56157326 Ha         -15.28118588 eV
  | Hartree energy correction     :           0.00808331 Ha           0.21995815 eV
  | Entropy correction            :           0.00000000 Ha           0.00000000 eV
  | ---------------------------
  | Total energy                  :          -0.90176256 Ha         -24.53820783 eV
  | Total energy, T -> 0          :          -0.90176256 Ha         -24.53820783 eV  <-- do not rely on this value for anything but (periodic) metals
  | Electronic free energy        :          -0.90176256 Ha         -24.53820783 eV

  Derived energy quantities:
  | Kinetic energy                :           0.67003200 Ha          18.23249832 eV
  | Electrostatic energy          :          -1.17440681 Ha         -31.95723517 eV
  | Energy correction for multipole
  | error in Hartree potential    :          -0.00004878 Ha          -0.00132730 eV
  | Sum of eigenvalues per atom                           :         -10.14522554 eV
  | Total energy (T->0) per atom                          :         -12.26910391 eV  <-- do not rely on this value for anything but (periodic) metals
  | Electronic free energy per atom                       :         -12.26910391 eV

  Self-consistency convergence accuracy:
  | Change of charge density      : 0.2469E-01
  | Change of sum of eigenvalues  : -.7749E-01 eV
  | Change of total energy        : 0.1119E+00 eV

  End self-consistency iteration #     3       :  max(cpu_time)    wall_clock(cpu1)
  | Time for this iteration                    :        0.760 s           0.760 s
  | Charge density update                      :        0.144 s           0.144 s
  | Density mixing                             :        0.008 s           0.008 s
  | Hartree multipole update                   :        0.064 s           0.064 s
  | Hartree multipole summation                :        0.260 s           0.258 s
  | Integration                                :        0.276 s           0.272 s
  | Fock matrix evaluation                     :        0.012 s           0.012 s
  | Solution of K.-S. eqns.                    :        0.004 s           0.002 s
  | Total energy evaluation                    :        0.000 s           0.000 s
------------------------------------------------------------

------------------------------------------------------------
          Begin self-consistency iteration #    4

  Date     :  20140812, Time     :  112008.984
------------------------------------------------------------
  Evaluating new KS density.
  Integration grid: deviation in total charge (<rho> - N_e) =   9.325873E-15
  Pulay mixing of updated and previous charge densities.

  Evaluating partitioned Hartree potential by multipole expansion.
  | Analytical far-field extrapolation by fixed multipoles:
  | Hartree multipole sum: apparent total charge =  -0.108650E-06
  Summing up the Hartree potential.
  Time summed over all CPUs for potential: real work        1.045 s, elapsed        1.074 s
  | RMS charge density error from multipole expansion :   0.304039E-03

  Integrating Hamiltonian matrix: batch-based integration.
  Time summed over all CPUs for integration: real work        1.082 s, elapsed        1.091 s
  Evaluating the exchange matrix ... 

  Updating Kohn-Sham eigenvalues, eigenvectors, occupation numbers, and Fermi level.
  Solving generalized eigenproblem
  Updating Kohn-Sham eigenvalues and eigenfunctions.
  Solving real generalised eigenvalue problem by standard LAPACK (fast)
  Determining occupation numbers for Kohn-Sham eigenstates.
  | Chemical potential (Fermi level) in eV                 : -.59909736E+01
  | Error in electron count due to remaining E_F inaccuracy: 0.00000000E+00
  | Maximum occupation number of highest empty state:  0.00E+00

  Highest occupied state (VBM) at    -10.17290472 eV
  | Occupation number:      2.00000000

  Lowest unoccupied state (CBM) at    -1.80904243 eV
  | Occupation number:      0.00000000

  Overall HOMO-LUMO gap:      8.36386229 eV.

  Total energy components:
  | Sum of eigenvalues            :          -0.74769475 Ha         -20.34580945 eV
  | XC energy correction          :           0.39504509 Ha          10.74972393 eV
  | XC potential correction       :           0.00000000 Ha           0.00000000 eV
  | Free-atom electrostatic energy:          -0.56157326 Ha         -15.28118588 eV
  | Hartree energy correction     :           0.01264457 Ha           0.34407637 eV
  | Entropy correction            :           0.00000000 Ha           0.00000000 eV
  | ---------------------------
  | Total energy                  :          -0.90157835 Ha         -24.53319503 eV
  | Total energy, T -> 0          :          -0.90157835 Ha         -24.53319503 eV  <-- do not rely on this value for anything but (periodic) metals
  | Electronic free energy        :          -0.90157835 Ha         -24.53319503 eV

  Derived energy quantities:
  | Kinetic energy                :           0.65536287 Ha          17.83333105 eV
  | Electrostatic energy          :          -1.16189612 Ha         -31.61680214 eV
  | Energy correction for multipole
  | error in Hartree potential    :          -0.00005305 Ha          -0.00144346 eV
  | Sum of eigenvalues per atom                           :         -10.17290472 eV
  | Total energy (T->0) per atom                          :         -12.26659751 eV  <-- do not rely on this value for anything but (periodic) metals
  | Electronic free energy per atom                       :         -12.26659751 eV

  Self-consistency convergence accuracy:
  | Change of charge density      : 0.4006E-02
  | Change of sum of eigenvalues  : -.5536E-01 eV
  | Change of total energy        : 0.5013E-02 eV

  End self-consistency iteration #     4       :  max(cpu_time)    wall_clock(cpu1)
  | Time for this iteration                    :        0.772 s           0.772 s
  | Charge density update                      :        0.140 s           0.141 s
  | Density mixing                             :        0.012 s           0.012 s
  | Hartree multipole update                   :        0.064 s           0.062 s
  | Hartree multipole summation                :        0.272 s           0.270 s
  | Integration                                :        0.272 s           0.273 s
  | Fock matrix evaluation                     :        0.012 s           0.012 s
  | Solution of K.-S. eqns.                    :        0.004 s           0.001 s
  | Total energy evaluation                    :        0.004 s           0.000 s
------------------------------------------------------------

------------------------------------------------------------
          Begin self-consistency iteration #    5

  Date     :  20140812, Time     :  112009.756
------------------------------------------------------------
  Evaluating new KS density.
  Integration grid: deviation in total charge (<rho> - N_e) =  -8.881784E-16
  Pulay mixing of updated and previous charge densities.

  Evaluating partitioned Hartree potential by multipole expansion.
  | Analytical far-field extrapolation by fixed multipoles:
  | Hartree multipole sum: apparent total charge =  -0.108746E-06
  Summing up the Hartree potential.
  Time summed over all CPUs for potential: real work        1.047 s, elapsed        1.169 s
  | RMS charge density error from multipole expansion :   0.304846E-03

  Integrating Hamiltonian matrix: batch-based integration.
  Time summed over all CPUs for integration: real work        1.117 s, elapsed        1.131 s
  Evaluating the exchange matrix ... 

  Updating Kohn-Sham eigenvalues, eigenvectors, occupation numbers, and Fermi level.
  Solving generalized eigenproblem
  Updating Kohn-Sham eigenvalues and eigenfunctions.
  Solving real generalised eigenvalue problem by standard LAPACK (fast)
  Determining occupation numbers for Kohn-Sham eigenstates.
  | Chemical potential (Fermi level) in eV                 : -.59942923E+01
  | Error in electron count due to remaining E_F inaccuracy: 0.00000000E+00
  | Maximum occupation number of highest empty state:  0.00E+00

  Highest occupied state (VBM) at    -10.17554840 eV
  | Occupation number:      2.00000000

  Lowest unoccupied state (CBM) at    -1.81303626 eV
  | Occupation number:      0.00000000

  Overall HOMO-LUMO gap:      8.36251214 eV.

  Total energy components:
  | Sum of eigenvalues            :          -0.74788906 Ha         -20.35109679 eV
  | XC energy correction          :           0.39456208 Ha          10.73658046 eV
  | XC potential correction       :           0.00000000 Ha           0.00000000 eV
  | Free-atom electrostatic energy:          -0.56157326 Ha         -15.28118588 eV
  | Hartree energy correction     :           0.01307762 Ha           0.35586022 eV
  | Entropy correction            :           0.00000000 Ha           0.00000000 eV
  | ---------------------------
  | Total energy                  :          -0.90182262 Ha         -24.53984199 eV
  | Total energy, T -> 0          :          -0.90182262 Ha         -24.53984199 eV  <-- do not rely on this value for anything but (periodic) metals
  | Electronic free energy        :          -0.90182262 Ha         -24.53984199 eV

  Derived energy quantities:
  | Kinetic energy                :           0.65390821 Ha          17.79374779 eV
  | Electrostatic energy          :          -1.16116875 Ha         -31.59700932 eV
  | Energy correction for multipole
  | error in Hartree potential    :          -0.00005310 Ha          -0.00144487 eV
  | Sum of eigenvalues per atom                           :         -10.17554840 eV
  | Total energy (T->0) per atom                          :         -12.26992100 eV  <-- do not rely on this value for anything but (periodic) metals
  | Electronic free energy per atom                       :         -12.26992100 eV

  Self-consistency convergence accuracy:
  | Change of charge density      : 0.1835E-03
  | Change of sum of eigenvalues  : -.5287E-02 eV
  | Change of total energy        : -.6647E-02 eV

  End self-consistency iteration #     5       :  max(cpu_time)    wall_clock(cpu1)
  | Time for this iteration                    :        0.844 s           0.844 s
  | Charge density update                      :        0.148 s           0.148 s
  | Density mixing                             :        0.020 s           0.020 s
  | Hartree multipole update                   :        0.088 s           0.085 s
  | Hartree multipole summation                :        0.296 s           0.294 s
  | Integration                                :        0.284 s           0.283 s
  | Fock matrix evaluation                     :        0.012 s           0.012 s
  | Solution of K.-S. eqns.                    :        0.004 s           0.002 s
  | Total energy evaluation                    :        0.000 s           0.000 s
------------------------------------------------------------

------------------------------------------------------------
          Begin self-consistency iteration #    6

  Date     :  20140812, Time     :  112010.600
------------------------------------------------------------
  Evaluating new KS density.
  Integration grid: deviation in total charge (<rho> - N_e) =   1.376677E-14
  Pulay mixing of updated and previous charge densities.

  Evaluating partitioned Hartree potential by multipole expansion.
  | Analytical far-field extrapolation by fixed multipoles:
  | Hartree multipole sum: apparent total charge =  -0.108722E-06
  Summing up the Hartree potential.
  Time summed over all CPUs for potential: real work        1.035 s, elapsed        1.053 s
  | RMS charge density error from multipole expansion :   0.304719E-03

  Integrating Hamiltonian matrix: batch-based integration.
  Time summed over all CPUs for integration: real work        1.158 s, elapsed        1.200 s
  Evaluating the exchange matrix ... 

  Updating Kohn-Sham eigenvalues, eigenvectors, occupation numbers, and Fermi level.
  Solving generalized eigenproblem
  Updating Kohn-Sham eigenvalues and eigenfunctions.
  Solving real generalised eigenvalue problem by standard LAPACK (fast)
  Determining occupation numbers for Kohn-Sham eigenstates.
  | Chemical potential (Fermi level) in eV                 : -.59941424E+01
  | Error in electron count due to remaining E_F inaccuracy: 0.00000000E+00
  | Maximum occupation number of highest empty state:  0.00E+00

  Highest occupied state (VBM) at    -10.17544518 eV
  | Occupation number:      2.00000000

  Lowest unoccupied state (CBM) at    -1.81283956 eV
  | Occupation number:      0.00000000

  Overall HOMO-LUMO gap:      8.36260562 eV.

  Total energy components:
  | Sum of eigenvalues            :          -0.74788147 Ha         -20.35089036 eV
  | XC energy correction          :           0.39453510 Ha          10.73584622 eV
  | XC potential correction       :           0.00000000 Ha           0.00000000 eV
  | Free-atom electrostatic energy:          -0.56157326 Ha         -15.28118588 eV
  | Hartree energy correction     :           0.01305850 Ha           0.35533997 eV
  | Entropy correction            :           0.00000000 Ha           0.00000000 eV
  | ---------------------------
  | Total energy                  :          -0.90186113 Ha         -24.54089006 eV
  | Total energy, T -> 0          :          -0.90186113 Ha         -24.54089006 eV  <-- do not rely on this value for anything but (periodic) metals
  | Electronic free energy        :          -0.90186113 Ha         -24.54089006 eV

  Derived energy quantities:
  | Kinetic energy                :           0.65390606 Ha          17.79368932 eV
  | Electrostatic energy          :          -1.16123210 Ha         -31.59873316 eV
  | Energy correction for multipole
  | error in Hartree potential    :          -0.00005307 Ha          -0.00144405 eV
  | Sum of eigenvalues per atom                           :         -10.17544518 eV
  | Total energy (T->0) per atom                          :         -12.27044503 eV  <-- do not rely on this value for anything but (periodic) metals
  | Electronic free energy per atom                       :         -12.27044503 eV

  Self-consistency convergence accuracy:
  | Change of charge density      : 0.2707E-04
  | Change of sum of eigenvalues  : 0.2064E-03 eV
  | Change of total energy        : -.1048E-02 eV

  End self-consistency iteration #     6       :  max(cpu_time)    wall_clock(cpu1)
  | Time for this iteration                    :        0.816 s           0.815 s
  | Charge density update                      :        0.144 s           0.143 s
  | Density mixing                             :        0.020 s           0.020 s
  | Hartree multipole update                   :        0.072 s           0.069 s
  | Hartree multipole summation                :        0.264 s           0.264 s
  | Integration                                :        0.300 s           0.300 s
  | Fock matrix evaluation                     :        0.016 s           0.016 s
  | Solution of K.-S. eqns.                    :        0.004 s           0.002 s
  | Total energy evaluation                    :        0.000 s           0.000 s
------------------------------------------------------------

------------------------------------------------------------
          Begin self-consistency iteration #    7

  Date     :  20140812, Time     :  112011.415
------------------------------------------------------------
  Evaluating new KS density.
  Integration grid: deviation in total charge (<rho> - N_e) =  -2.664535E-15
  Pulay mixing of updated and previous charge densities.

  Evaluating partitioned Hartree potential by multipole expansion.
  | Analytical far-field extrapolation by fixed multipoles:
  | Hartree multipole sum: apparent total charge =  -0.108713E-06
  Summing up the Hartree potential.
  Time summed over all CPUs for potential: real work        1.039 s, elapsed        1.053 s
  | RMS charge density error from multipole expansion :   0.304693E-03

  Integrating Hamiltonian matrix: batch-based integration.
  Time summed over all CPUs for integration: real work        1.120 s, elapsed        1.130 s
  Evaluating the exchange matrix ... 

  Updating Kohn-Sham eigenvalues, eigenvectors, occupation numbers, and Fermi level.
  Solving generalized eigenproblem
  Updating Kohn-Sham eigenvalues and eigenfunctions.
  Solving real generalised eigenvalue problem by standard LAPACK (fast)
  Determining occupation numbers for Kohn-Sham eigenstates.
  | Chemical potential (Fermi level) in eV                 : -.59941087E+01
  | Error in electron count due to remaining E_F inaccuracy: 0.00000000E+00
  | Maximum occupation number of highest empty state:  0.00E+00

  Highest occupied state (VBM) at    -10.17543325 eV
  | Occupation number:      2.00000000

  Lowest unoccupied state (CBM) at    -1.81278411 eV
  | Occupation number:      0.00000000

  Overall HOMO-LUMO gap:      8.36264914 eV.

  Total energy components:
  | Sum of eigenvalues            :          -0.74788060 Ha         -20.35086649 eV
  | XC energy correction          :           0.39453840 Ha          10.73593609 eV
  | XC potential correction       :           0.00000000 Ha           0.00000000 eV
  | Free-atom electrostatic energy:          -0.56157326 Ha         -15.28118588 eV
  | Hartree energy correction     :           0.01305369 Ha           0.35520902 eV
  | Entropy correction            :           0.00000000 Ha           0.00000000 eV
  | ---------------------------
  | Total energy                  :          -0.90186177 Ha         -24.54090726 eV
  | Total energy, T -> 0          :          -0.90186177 Ha         -24.54090726 eV  <-- do not rely on this value for anything but (periodic) metals
  | Electronic free energy        :          -0.90186177 Ha         -24.54090726 eV

  Derived energy quantities:
  | Kinetic energy                :           0.65392809 Ha          17.79428857 eV
  | Electrostatic energy          :          -1.16125145 Ha         -31.59925973 eV
  | Energy correction for multipole
  | error in Hartree potential    :          -0.00005306 Ha          -0.00144384 eV
  | Sum of eigenvalues per atom                           :         -10.17543325 eV
  | Total energy (T->0) per atom                          :         -12.27045363 eV  <-- do not rely on this value for anything but (periodic) metals
  | Electronic free energy per atom                       :         -12.27045363 eV

  Self-consistency convergence accuracy:
  | Change of charge density      : 0.7171E-05
  | Change of sum of eigenvalues  : 0.2387E-04 eV
  | Change of total energy        : -.1720E-04 eV

  End self-consistency iteration #     7       :  max(cpu_time)    wall_clock(cpu1)
  | Time for this iteration                    :        0.812 s           0.811 s
  | Charge density update                      :        0.152 s           0.152 s
  | Density mixing                             :        0.024 s           0.025 s
  | Hartree multipole update                   :        0.072 s           0.069 s
  | Hartree multipole summation                :        0.264 s           0.265 s
  | Integration                                :        0.284 s           0.283 s
  | Fock matrix evaluation                     :        0.016 s           0.014 s
  | Solution of K.-S. eqns.                    :        0.004 s           0.002 s
  | Total energy evaluation                    :        0.000 s           0.001 s
------------------------------------------------------------

------------------------------------------------------------
          Begin self-consistency iteration #    8

  Date     :  20140812, Time     :  112012.226
------------------------------------------------------------
  Evaluating new KS density.
  Integration grid: deviation in total charge (<rho> - N_e) =  -1.332268E-15
  Pulay mixing of updated and previous charge densities.

  Evaluating partitioned Hartree potential by multipole expansion.
  | Analytical far-field extrapolation by fixed multipoles:
  | Hartree multipole sum: apparent total charge =  -0.108712E-06
  Summing up the Hartree potential.
  Time summed over all CPUs for potential: real work        1.032 s, elapsed        1.046 s
  | RMS charge density error from multipole expansion :   0.304691E-03

  Integrating Hamiltonian matrix: batch-based integration.
  Time summed over all CPUs for integration: real work        1.137 s, elapsed        1.169 s
  Evaluating the exchange matrix ... 

  Updating Kohn-Sham eigenvalues, eigenvectors, occupation numbers, and Fermi level.
  Solving generalized eigenproblem
  Updating Kohn-Sham eigenvalues and eigenfunctions.
  Solving real generalised eigenvalue problem by standard LAPACK (fast)
  Determining occupation numbers for Kohn-Sham eigenstates.
  | Chemical potential (Fermi level) in eV                 : -.59941008E+01
  | Error in electron count due to remaining E_F inaccuracy: 0.00000000E+00
  | Maximum occupation number of highest empty state:  0.00E+00

  Highest occupied state (VBM) at    -10.17542686 eV
  | Occupation number:      2.00000000

  Lowest unoccupied state (CBM) at    -1.81277468 eV
  | Occupation number:      0.00000000

  Overall HOMO-LUMO gap:      8.36265217 eV.

  Total energy components:
  | Sum of eigenvalues            :          -0.74788013 Ha         -20.35085371 eV
  | XC energy correction          :           0.39453883 Ha          10.73594790 eV
  | XC potential correction       :           0.00000000 Ha           0.00000000 eV
  | Free-atom electrostatic energy:          -0.56157326 Ha         -15.28118588 eV
  | Hartree energy correction     :           0.01305295 Ha           0.35518882 eV
  | Entropy correction            :           0.00000000 Ha           0.00000000 eV
  | ---------------------------
  | Total energy                  :          -0.90186160 Ha         -24.54090288 eV
  | Total energy, T -> 0          :          -0.90186160 Ha         -24.54090288 eV  <-- do not rely on this value for anything but (periodic) metals
  | Electronic free energy        :          -0.90186160 Ha         -24.54090288 eV

  Derived energy quantities:
  | Kinetic energy                :           0.65393042 Ha          17.79435198 eV
  | Electrostatic energy          :          -1.16125319 Ha         -31.59930695 eV
  | Energy correction for multipole
  | error in Hartree potential    :          -0.00005306 Ha          -0.00144383 eV
  | Sum of eigenvalues per atom                           :         -10.17542686 eV
  | Total energy (T->0) per atom                          :         -12.27045144 eV  <-- do not rely on this value for anything but (periodic) metals
  | Electronic free energy per atom                       :         -12.27045144 eV

  Self-consistency convergence accuracy:
  | Change of charge density      : 0.5823E-06
  | Change of sum of eigenvalues  : 0.1278E-04 eV
  | Change of total energy        : 0.4383E-05 eV

  End self-consistency iteration #     8       :  max(cpu_time)    wall_clock(cpu1)
  | Time for this iteration                    :        0.824 s           0.823 s
  | Charge density update                      :        0.152 s           0.150 s
  | Density mixing                             :        0.032 s           0.032 s
  | Hartree multipole update                   :        0.072 s           0.068 s
  | Hartree multipole summation                :        0.264 s           0.263 s
  | Integration                                :        0.292 s           0.293 s
  | Fock matrix evaluation                     :        0.016 s           0.015 s
  | Solution of K.-S. eqns.                    :        0.000 s           0.001 s
  | Total energy evaluation                    :        0.000 s           0.000 s
------------------------------------------------------------

------------------------------------------------------------
          Begin self-consistency iteration #    9

  Date     :  20140812, Time     :  112013.049
------------------------------------------------------------
  Evaluating new KS density.
  Integration grid: deviation in total charge (<rho> - N_e) =   6.661338E-15
  Pulay mixing of updated and previous charge densities.

  Evaluating partitioned Hartree potential by multipole expansion.
  | Analytical far-field extrapolation by fixed multipoles:
  | Hartree multipole sum: apparent total charge =  -0.108712E-06
  Summing up the Hartree potential.
  Time summed over all CPUs for potential: real work        1.059 s, elapsed        1.080 s
  | RMS charge density error from multipole expansion :   0.304691E-03

  Integrating Hamiltonian matrix: batch-based integration.
  Time summed over all CPUs for integration: real work        1.138 s, elapsed        1.160 s
  Evaluating the exchange matrix ... 

  Updating Kohn-Sham eigenvalues, eigenvectors, occupation numbers, and Fermi level.
  Solving generalized eigenproblem
  Updating Kohn-Sham eigenvalues and eigenfunctions.
  Solving real generalised eigenvalue problem by standard LAPACK (fast)
  Determining occupation numbers for Kohn-Sham eigenstates.
  | Chemical potential (Fermi level) in eV                 : -.59941004E+01
  | Error in electron count due to remaining E_F inaccuracy: 0.00000000E+00
  | Maximum occupation number of highest empty state:  0.00E+00

  Highest occupied state (VBM) at    -10.17542673 eV
  | Occupation number:      2.00000000

  Lowest unoccupied state (CBM) at    -1.81277402 eV
  | Occupation number:      0.00000000

  Overall HOMO-LUMO gap:      8.36265271 eV.

  Total energy components:
  | Sum of eigenvalues            :          -0.74788012 Ha         -20.35085347 eV
  | XC energy correction          :           0.39453893 Ha          10.73595045 eV
  | XC potential correction       :           0.00000000 Ha           0.00000000 eV
  | Free-atom electrostatic energy:          -0.56157326 Ha         -15.28118588 eV
  | Hartree energy correction     :           0.01305290 Ha           0.35518740 eV
  | Entropy correction            :           0.00000000 Ha           0.00000000 eV
  | ---------------------------
  | Total energy                  :          -0.90186155 Ha         -24.54090150 eV
  | Total energy, T -> 0          :          -0.90186155 Ha         -24.54090150 eV  <-- do not rely on this value for anything but (periodic) metals
  | Electronic free energy        :          -0.90186155 Ha         -24.54090150 eV

  Derived energy quantities:
  | Kinetic energy                :           0.65393066 Ha          17.79435856 eV
  | Electrostatic energy          :          -1.16125328 Ha         -31.59930961 eV
  | Energy correction for multipole
  | error in Hartree potential    :          -0.00005306 Ha          -0.00144383 eV
  | Sum of eigenvalues per atom                           :         -10.17542673 eV
  | Total energy (T->0) per atom                          :         -12.27045075 eV  <-- do not rely on this value for anything but (periodic) metals
  | Electronic free energy per atom                       :         -12.27045075 eV

  Self-consistency convergence accuracy:
  | Change of charge density      : 0.3853E-07
  | Change of sum of eigenvalues  : 0.2461E-06 eV
  | Change of total energy        : 0.1375E-05 eV

  End self-consistency iteration #     9       :  max(cpu_time)    wall_clock(cpu1)
  | Time for this iteration                    :        0.836 s           0.835 s
  | Charge density update                      :        0.148 s           0.148 s
  | Density mixing                             :        0.036 s           0.035 s
  | Hartree multipole update                   :        0.076 s           0.074 s
  | Hartree multipole summation                :        0.272 s           0.272 s
  | Integration                                :        0.292 s           0.290 s
  | Fock matrix evaluation                     :        0.016 s           0.014 s
  | Solution of K.-S. eqns.                    :        0.004 s           0.001 s
  | Total energy evaluation                    :        0.000 s           0.001 s
------------------------------------------------------------

------------------------------------------------------------
          Begin self-consistency iteration #   10

  Date     :  20140812, Time     :  112013.884
------------------------------------------------------------
  Evaluating new KS density.
  Integration grid: deviation in total charge (<rho> - N_e) =   2.220446E-15
  Pulay mixing of updated and previous charge densities.

  Evaluating partitioned Hartree potential by multipole expansion.
  | Analytical far-field extrapolation by fixed multipoles:
  | Hartree multipole sum: apparent total charge =  -0.108712E-06
  Summing up the Hartree potential.
  Time summed over all CPUs for potential: real work        1.034 s, elapsed        1.070 s
  | RMS charge density error from multipole expansion :   0.304691E-03

  Integrating Hamiltonian matrix: batch-based integration.
  Time summed over all CPUs for integration: real work        1.117 s, elapsed        1.149 s
  Evaluating the exchange matrix ... 

  Updating Kohn-Sham eigenvalues, eigenvectors, occupation numbers, and Fermi level.
  Solving generalized eigenproblem
  Updating Kohn-Sham eigenvalues and eigenfunctions.
  Solving real generalised eigenvalue problem by standard LAPACK (fast)
  Determining occupation numbers for Kohn-Sham eigenstates.
  | Chemical potential (Fermi level) in eV                 : -.59941003E+01
  | Error in electron count due to remaining E_F inaccuracy: 0.00000000E+00
  | Maximum occupation number of highest empty state:  0.00E+00

  Highest occupied state (VBM) at    -10.17542672 eV
  | Occupation number:      2.00000000

  Lowest unoccupied state (CBM) at    -1.81277395 eV
  | Occupation number:      0.00000000

  Overall HOMO-LUMO gap:      8.36265277 eV.

  Total energy components:
  | Sum of eigenvalues            :          -0.74788012 Ha         -20.35085344 eV
  | XC energy correction          :           0.39453893 Ha          10.73595057 eV
  | XC potential correction       :           0.00000000 Ha           0.00000000 eV
  | Free-atom electrostatic energy:          -0.56157326 Ha         -15.28118588 eV
  | Hartree energy correction     :           0.01305289 Ha           0.35518733 eV
  | Entropy correction            :           0.00000000 Ha           0.00000000 eV
  | ---------------------------
  | Total energy                  :          -0.90186155 Ha         -24.54090143 eV
  | Total energy, T -> 0          :          -0.90186155 Ha         -24.54090143 eV  <-- do not rely on this value for anything but (periodic) metals
  | Electronic free energy        :          -0.90186155 Ha         -24.54090143 eV

  Derived energy quantities:
  | Kinetic energy                :           0.65393067 Ha          17.79435900 eV
  | Electrostatic energy          :          -1.16125329 Ha         -31.59930985 eV
  | Energy correction for multipole
  | error in Hartree potential    :          -0.00005306 Ha          -0.00144383 eV
  | Sum of eigenvalues per atom                           :         -10.17542672 eV
  | Total energy (T->0) per atom                          :         -12.27045071 eV  <-- do not rely on this value for anything but (periodic) metals
  | Electronic free energy per atom                       :         -12.27045071 eV

  Self-consistency convergence accuracy:
  | Change of charge density      : 0.2886E-08
  | Change of sum of eigenvalues  : 0.2504E-07 eV
  | Change of total energy        : 0.7699E-07 eV

  Writing Kohn-Sham eigenvalues.

  State    Occupation    Eigenvalue [Ha]    Eigenvalue [eV]
      1       2.00000          -0.373940          -10.17543
      2       0.00000          -0.066618           -1.81277
      3       0.00000           0.188379            5.12604
      4       0.00000           0.210586            5.73033
      5       0.00000           0.338751            9.21788
      6       0.00000           0.338751            9.21788
      7       0.00000           0.396156           10.77996
      8       0.00000           0.479538           13.04890
      9       0.00000           0.479538           13.04890
     10       0.00000           0.711644           19.36481
     11       0.00000           0.977034           26.58644
     12       0.00000           1.046942           28.48874
     13       0.00000           1.099971           29.93173
     14       0.00000           1.099971           29.93173
     15       0.00000           1.157029           31.48437
     16       0.00000           1.157029           31.48437
     17       0.00000           1.222550           33.26727
     18       0.00000           1.287967           35.04737
     19       0.00000           1.287967           35.04737
     20       0.00000           1.525502           41.51101
     21       0.00000           1.525502           41.51101
     22       0.00000           1.813948           49.36003
     23       0.00000           1.813948           49.36003
     24       0.00000           1.863737           50.71487
     25       0.00000           1.985105           54.01747
     26       0.00000           1.985105           54.01747
     27       0.00000           2.028565           55.20006
     28       0.00000           2.588312           70.43156
     29       0.00000           3.299710           89.78968
     30       0.00000           3.299710           89.78968
     31       0.00000           3.344154           90.99907
     32       0.00000           3.344155           90.99907
     33       0.00000           3.361143           91.46136
     34       0.00000           3.465373           94.29761
     35       0.00000           3.465373           94.29761
     36       0.00000           3.523988           95.89260
     37       0.00000           3.523988           95.89260
     38       0.00000           3.685398          100.28479
     39       0.00000           3.685398          100.28479
     40       0.00000           3.957240          107.68199
     41       0.00000           3.996786          108.75808
     42       0.00000           4.002103          108.90278
     43       0.00000           4.002103          108.90278
     44       0.00000           4.266129          116.08729
     45       0.00000           5.257571          143.06579
     46       0.00000           5.257571          143.06579
     47       0.00000           5.281898          143.72776
     48       0.00000           5.281898          143.72776
     49       0.00000           5.466527          148.75176
     50       0.00000           5.466527          148.75176
     51       0.00000           5.728823          155.88921
     52       0.00000           6.008646          163.50357
     53       0.00000           6.008646          163.50357
     54       0.00000           7.177280          195.30373
     55       0.00000           8.496216          231.19379
     56       0.00000           8.496216          231.19379
     57       0.00000           8.880854          241.66034
     58       0.00000           8.880854          241.66034
     59       0.00000           8.976163          244.25383
     60       0.00000          10.120394          275.38994
     61       0.00000          21.965295          597.70609
     62       0.00000          22.506608          612.43596

  Highest occupied state (VBM) at    -10.17542672 eV
  | Occupation number:      2.00000000

  Lowest unoccupied state (CBM) at    -1.81277395 eV
  | Occupation number:      0.00000000

  Overall HOMO-LUMO gap:      8.36265277 eV.

  Self-consistency cycle converged.

  End self-consistency iteration #    10       :  max(cpu_time)    wall_clock(cpu1)
  | Time for this iteration                    :        0.824 s           0.824 s
  | Charge density update                      :        0.148 s           0.148 s
  | Density mixing                             :        0.036 s           0.037 s
  | Hartree multipole update                   :        0.068 s           0.064 s
  | Hartree multipole summation                :        0.272 s           0.269 s
  | Integration                                :        0.288 s           0.288 s
  | Fock matrix evaluation                     :        0.016 s           0.014 s
  | Solution of K.-S. eqns.                    :        0.004 s           0.001 s
  | Total energy evaluation                    :        0.000 s           0.000 s
------------------------------------------------------------

  Energy and forces in a compact form:
  | Total energy uncorrected      :         -0.245409014259521E+02 eV
  | Total energy corrected        :         -0.245409014259521E+02 eV  <-- do not rely on this value for anything but (periodic) metals
  | Electronic free energy        :         -0.245409014259521E+02 eV

  ------------------------------------ 
  Start decomposition of the XC Energy 
  ------------------------------------ 
  Hartree-Fock part   :          0.394538932 Ha             10.735950575 eV
  ------------------------------------ 
  X Energy            :          0.394538932 Ha             10.735950575 eV
  C Energy GGA        :          0.000000000 Ha              0.000000000 eV
  Total XC Energy     :          0.394538932 Ha             10.735950575 eV
  LDA X and C from self-consistent density 
  X Energy LDA        :         -0.369658229 Ha            -10.058912203 eV
  C Energy LDA        :         -0.078003204 Ha             -2.122575187 eV
  ------------------------------------ 
  End decomposition of the XC Energy 
  ------------------------------------ 
---------------------------------------------
---------------------------------------------
 | MP2 calculation starts ...
---------------------------------------------

  | Note : Resolution of identity applied 
  | Note : Non spin-polarized system 
---------------------------------------------
  | Homo level                                        1
  | Lumo level                                        2
  | Total Number of states                           62
  | Number of k-points                                1
  | Homo-Lumo Gap                            0.30732184 Ha          8.36265277 eV
---------------------------------------------
  The ovlp_3KS matrix takes another      0 MiB x      4 procs =       0.000 GiB.


---------------------------------------------
| Sum of correlation terms 
---------------------------------------------
  | Pair state     1                    :         -1.63702104 eV         -1.63702104 eV

---------------------------------------------
| Correlation energy spectrum 
---------------------------------------------
  |     2    :         -0.06661822        -0.03831280
  |     3    :          0.18837862        -0.00109913
  |     4    :          0.21058559        -0.00549752
  |     5    :          0.33875073        -0.00150391
  |     6    :          0.33875073        -0.00150391
  |     7    :          0.39615613        -0.00165883
  |     8    :          0.47953809        -0.00056025
  |     9    :          0.47953809        -0.00056025
  |    10    :          0.71164370        -0.00080017
  |    11    :          0.97703382        -0.00124259
  |    12    :          1.04694183        -0.00175371
  |    13    :          1.09997087        -0.00023639
  |    14    :          1.09997087        -0.00023639
  |    15    :          1.15702940        -0.00012173
  |    16    :          1.15702941        -0.00012173
  |    17    :          1.22254965        -0.00049603
  |    18    :          1.28796734        -0.00008443
  |    19    :          1.28796735        -0.00008443
  |    20    :          1.52550161        -0.00017043
  |    21    :          1.52550161        -0.00017043
  |    22    :          1.81394781        -0.00048091
  |    23    :          1.81394781        -0.00048091
  |    24    :          1.86373738        -0.00033321
  |    25    :          1.98510537        -0.00031769
  |    26    :          1.98510537        -0.00031769
  |    27    :          2.02856497        -0.00035921
  |    28    :          2.58831230        -0.00014666
  |    29    :          3.29970992        -0.00003738
  |    30    :          3.29970992        -0.00003738
  |    31    :          3.34415450        -0.00002833
  |    32    :          3.34415450        -0.00002833
  |    33    :          3.36114327        -0.00007732
  |    34    :          3.46537333        -0.00002050
  |    35    :          3.46537333        -0.00002050
  |    36    :          3.52398810        -0.00001923
  |    37    :          3.52398810        -0.00001923
  |    38    :          3.68539812        -0.00002251
  |    39    :          3.68539813        -0.00002251
  |    40    :          3.95724023        -0.00021155
  |    41    :          3.99678581        -0.00025496
  |    42    :          4.00210349        -0.00002912
  |    43    :          4.00210349        -0.00002912
  |    44    :          4.26612940        -0.00004154
  |    45    :          5.25757124        -0.00003764
  |    46    :          5.25757127        -0.00003764
  |    47    :          5.28189808        -0.00004094
  |    48    :          5.28189808        -0.00004094
  |    49    :          5.46652669        -0.00003436
  |    50    :          5.46652672        -0.00003436
  |    51    :          5.72882301        -0.00004181
  |    52    :          6.00864567        -0.00003081
  |    53    :          6.00864567        -0.00003081
  |    54    :          7.17728022        -0.00002853
  |    55    :          8.49621575        -0.00004493
  |    56    :          8.49621575        -0.00004493
  |    57    :          8.88085437        -0.00003954
  |    58    :          8.88085437        -0.00003954
  |    59    :          8.97616327        -0.00003808
  |    60    :         10.12039426        -0.00002691
  |    61    :         21.96529498        -0.00000866
  |    62    :         22.50660775        -0.00000815
---------------------------------------------
 
 
 
          ---------------------------------------------
          | MP2 calculation comes to finish ...  
 
          ---------------------------------------------
          | Total time for calculating MP2 correction              :        0.000 s

          ---------------------------------------------

---------------------------------------------
  | HF Energy                      :         -0.90186155 Ha        -24.54090143 eV
  | MP2 correction                 :         -0.06015942 Ha         -1.63702104 eV
---------------------------------------------
  | Total Energy + MP2 correction  :         -0.96202097 Ha        -26.17792247 eV
---------------------------------------------

------------------------------------------------------------------------------
  Final output of selected total energy values:

  The following output summarizes some interesting total energy values
  at the end of a run (AFTER all relaxation, molecular dynamics, etc.).

  | Total energy of the DFT / Hartree-Fock s.c.f. calculation      :            -24.540901426 eV
  | Final zero-broadening corrected energy (caution - metals only) :            -24.540901426 eV
  | Total energy after the post-s.c.f. correlation calculation     :            -26.177922466 eV
  | For reference only, the value of 1 Hartree used in FHI-aims is :             27.211384500 eV

  Before relying on these values, please be sure to understand exactly which
  total energy value is referred to by a given number. Different objects may
  all carry the same name 'total energy'. Definitions:

  Total energy of the DFT / Hartree-Fock s.c.f. calculation:
  | Note that this energy does not include ANY quantities calculated after the
  | s.c.f. cycle, in particular not ANY RPA, MP2, etc. many-body perturbation terms.

  Final zero-broadening corrected energy:
  | For metallic systems only, a broadening of the occupation numbers at the Fermi
  | level can be extrapolated back to zero broadening by an electron-gas inspired
  | formula. For all systems that are not real metals, this value can be
  | meaningless and should be avoided.

  Total energy of the post-s.c.f. correlation calculation        :
  | The actual meaning of this energy depends on the setting for the 'total_energy_method'
  | keyword (MP2, RPA, rPT2, etc). If not sure, compare to the results listed above.

------------------------------------------------------------------------------

  Methods described in the following list of references were used in this FHI-aims run.
  If you publish the results, please make sure to cite these reference if they apply.
  FHI-aims is an academic code, and for our developers (often, Ph.D. students
  and postdocs), scientific credit in the community is essential.
  Thank you for helping us!

  For any use of FHI-aims, please cite:

    Volker Blum, Ralf Gehrke, Felix Hanke, Paula Havu, Ville Havu,
    Xinguo Ren, Karsten Reuter, and Matthias Scheffler,
    "Ab initio molecular simulations with numeric atom-centered orbitals"
    Computer Physics Communications 180, 2175-2196 (2009).
    http://dx.doi.org/10.1016/j.cpc.2009.06.022

  For Hartree-Fock, hybrid functionals, or many-body perturbation theory used in your run, please cite:

    Xinguo Ren, Patrick Rinke, Volker Blum, Juergen Wieferink, Alex Tkatchenko,
    Andrea Sanfilippo, Karsten Reuter, and Matthias Scheffler,
    "Resolution-of-identity approach to Hartree-Fock, hybrid density functionals,
     RPA, MP2, and GW with numeric atom-centered orbital basis functions"
    New Journal of Physics 14, 053020 (2012).
    http://dx.doi.org/10.1088/1367-2630/14/5/053020

  For the NAO-VCC-nZ basis sets used in this calculation, please cite:

    Igor Ying Zhang, Xinguo Ren, Patrick Rinke, Volker Blum, and Matthias Scheffler,
    "Numeric atom-centered-orbital basis sets with valence-correlation consistency from H to Ar"
    New Journal of Physics 15, 123033 (2013).
    http://dx.doi.org/10.1088/1367-2630/15/12/123033

  For the real-space grid partitioning and parallelization used in this calculation, please cite:

    Ville Havu, Volker Blum, Paula Havu, and Matthias Scheffler,
    "Efficient O(N) integration for all-electron electronic
    structure calculation using numerically tabulated basis functions"
    Journal of Computational Physics 228, 8367-8379 (2009).
    http://dx.doi.org/10.1016/j.jcp.2009.08.008

  Of course, there are many other important community references, e.g., those cited in the
  above references. Our list is limited to references that describe implementations in the FHI-aims
  code. The reason is purely practical (length of this list) - please credit others as well.

------------------------------------------------------------
          Leaving FHI-aims.
          Date     :  20140812, Time     :  112014.748

          Computational steps:
          | Number of self-consistency cycles          :           10

          Detailed time accounting                     :  max(cpu_time)    wall_clock(cpu1)
          | Total time                                 :       32.650 s          32.702 s
          | Preparation time                           :        0.184 s           0.205 s
          | Grid partitioning                          :        0.224 s           0.225 s
          | Preloading free-atom quantities on grid    :        0.068 s           0.067 s
          | Free-atom superposition energy             :        0.036 s           0.037 s
          | Total time for integrations                :        3.328 s           3.320 s
          | Product basis setup: Total time            :        0.000 s           0.000 s
          | Product basis: | 3-center integrations     :       23.057 s          23.087 s
          | Product basis: | 2-center integrations     :        0.256 s           0.256 s
          | Product basis: | 2-center linear algebra   :        0.076 s           0.077 s
          | Product basis: | 3-center x 2-center       :        0.024 s           0.024 s
          | Total time evaluating exchange matrix      :        0.148 s           0.138 s
          | Transforming ovlp_3fn to ovlp_3KS          :        0.012 s           0.013 s
          | Total time for solution of K.-S. equations :        0.040 s           0.020 s
          | Total time for density update              :        1.460 s           1.456 s
          | Total time for mixing                      :        0.200 s           0.195 s
          | Total time for Hartree multipole update    :        0.704 s           0.683 s
          | Total time for Hartree multipole sum       :        2.684 s           2.671 s
          | Total time for total energy evaluation     :        0.004 s           0.002 s

          Have a nice day.
------------------------------------------------------------
