  MPI-parallelism will be employed.
------------------------------------------------------------
          Invoking FHI-aims ...
          Version 072414
          Compiled on 2014/08/06 at 00:00:04 on host theobook58.

          When using FHI-aims, please cite the following reference:

          Volker Blum, Ralf Gehrke, Felix Hanke, Paula Havu,
          Ville Havu, Xinguo Ren, Karsten Reuter, and Matthias Scheffler,
          'Ab Initio Molecular Simulations with Numeric Atom-Centered Orbitals: FHI-aims',
          Computer Physics Communications 180, 2175-2196 (2009)

          For any questions about FHI-aims, please visit the aimsclub website
          with its forums and wiki. Contributions to both the forums and the
          wiki are warmly encouraged - they are for you, and everyone is welcome there.

------------------------------------------------------------

  Date     :  20140812, Time     :  112048.498
  Time zero on CPU 1             :   0.160000000000000E-01  s.
  Internal wall clock time zero  :           177074448.498  s.

  Using        4 parallel tasks.
  Task        0 on host theobook58 reporting.
  Task        1 on host theobook58 reporting.
  Task        2 on host theobook58 reporting.
  Task        3 on host theobook58 reporting.

  Performing system and environment tests:
  | Environment variable OMP_NUM_THREADS correctly set to 1.
  | Stacksize not measured: no C compiler
  | Checking for scalapack...
  | No scalapack compiled in.

  Obtaining array dimensions for all initial allocations:
  
  -----------------------------------------------------------------------
  Parsing control.in (first pass over file, find array dimensions only).
  The contents of control.in will be repeated verbatim below
  unless switched off by setting 'verbatim_writeout .false.' .
  in the first line of control.in .
  -----------------------------------------------------------------------
  
  xc                      hf
  total_energy_method     mp2
  relativistic            none
  occupation_type         integer 0.0001
  mixer                   pulay
  n_max_pulay             10
  charge_mix_param        0.6
  sc_iter_limit           600
  sc_accuracy_rho         1E-6
  sc_accuracy_eev         1E-4
  sc_accuracy_etot        1E-6
  override_illconditioning .true.
  charge                  0
  ################################################################################
  #
  #  FHI-aims code project
  # Igor Ying Zhang and Xinguo Ren, Fritz Haber Institute Berlin, 2012
  #
  #  Suggested "NAO-VCC-4Z" defaults for H atom (to be pasted into control.in file)
  #
  #  Please cite:
  #
  #  Igor Ying Zhang, Xinguo Ren, Patrick Rinke, Volker Blum, and Matthias Scheffler,
  #  "Numeric atom-centered-orbital basis sets with valence-correlation consistency from H to Ar"
  #  New Journal of Physics 15, 123033 (2013).
  #  http://dx.doi.org/10.1088/1367-2630/15/12/123033
  #
  ################################################################################
    species        H
  #     set basis set reference for FHI-aims output
      cite_reference NAO-VCC-2013
  #     global species definitions
      nucleus             1
      mass                1.00794
  #
      l_hartree           6
  #
      cut_pot             4.0  2.0  1.0
      basis_dep_cutoff    0e-4
  #
      radial_base         24 7.0
  radial_multiplier               6
      angular_grids       specified
        division   0.1930   50
        division   0.3175  110
        division   0.4293  194
        division   0.5066  302
        division   0.5626  434
        division   0.5922  590
  #      division   0.6227  974
  #      division   0.6868 1202
        outer_grid  770
  #      outer_grid  434
  ################################################################################
  #
  #  Definition of "minimal" basis
  #
  ################################################################################
  #     valence basis states
      valence      1  s   1.
  #     ion occupancy
      ion_occ      1  s   0.5
  ################################################################################
  
  
   basis_acc              1e-04
  #============================================
  # Optimization in      H for       NAO-VCC-4Z
  #============================================
  # (sp) correlation set
   hydro     1     s      1.15655525
   hydro     1     s      1.68684502
   hydro     1     s      2.46027686
   hydro     2     p      2.92145897
   hydro     2     p      4.14501835
   hydro     2     p      5.88102632
  # polarization set
   hydro     3     d      6.41446874
   hydro     3     d      7.67536483
   hydro     4     f     10.80870049
  # (sp) enhanced minimal set
   hydro     1     s      3.58833335
  
  -----------------------------------------------------------------------
  Completed first pass over input file control.in .
  -----------------------------------------------------------------------
  
  
  -----------------------------------------------------------------------
  Parsing geometry.in (first pass over file, find array dimensions only).
  The contents of geometry.in will be repeated verbatim below
  unless switched off by setting 'verbatim_writeout .false.' .
  in the first line of geometry.in .
  -----------------------------------------------------------------------
  
  atom             0.0             0.0             0.0    H
  atom             0.0             0.0             2.6    H
  
  -----------------------------------------------------------------------
  Completed first pass over input file geometry.in .
  -----------------------------------------------------------------------
  

  Basic array size parameters:
  | Number of species                 :        1
  | Number of atoms                   :        2
  | Max. basis fn. angular momentum   :        3
  | Max. atomic/ionic basis occupied n:        1
  | Max. number of basis fn. types    :        2
  | Max. radial fns per species/type  :       10
  | Max. logarithmic grid size        :     1131
  | Max. radial integration grid size :      149
  | Max. angular integration grid size:      770
  | Max. angular grid division number :        8
  | Radial grid for Hartree potential :     1131
  | Number of spin channels           :        1

------------------------------------------------------------
          Reading file control.in.
------------------------------------------------------------
 
  Hartree-Fock calculation starts ...... 
  Attention: this version of Hartree-Fock employs an auxiliary basis. 
 
  MP2 correlation energy calculation will be started after the DFT/HF calculation.
  Non-relativistic treatment of kinetic energy.
  Occupation type: Integer occupation.
  Using pulay charge density mixing.
  Pulay mixing - number of memorized iterations:   10
  Charge density mixing - mixing parameter:     0.6000
  Maximum number of s.-c. iterations  :   600
  Convergence accuracy of self-consistent charge density: 0.1000E-05
  Convergence accuracy of sum of eigenvalues: 0.1000E-03
  Convergence accuracy of total energy: 0.1000E-05
  override_illconditioning: Explicitly overriding any built-in checks for an ill-conditioned overlap matrix.
  *** WARNING: If you use this flag, you should really know what you are doing.
  *** DO NOT keep this flag set by default in all your control.in files.
  Charge =   0.000000E+00: Neutral system requested explicitly.
 
  Reading configuration options for species H                   .
  | Found nuclear charge :   1.0000
  | Found atomic mass :    1.00794000000000      amu
  | Found l_max for Hartree potential  :   6
  | Found cutoff potl. onset [A], width [A], scale factor :    4.00000    2.00000    1.00000
  | Threshold for basis-dependent cutoff potential is   0.000000E+00
  | Found data for basic radial integration grid :    24 points, outermost radius =    7.000 A
  | Found multiplier for basic radial grid :   6
  | Found angular grid specification: user-specified.
  | Specified grid contains     7 separate shells.
  | Check grid settings after all constraints further below.
  | Found free-atom valence shell :  1 s   1.000
  | No ionic wave fns used. Skipping ion_occ.
  | Found basis singularity cutoff : 0.1000E-03
  | Found hydrogenic basis function :  1 s   1.157
  | Found hydrogenic basis function :  1 s   1.687
  | Found hydrogenic basis function :  1 s   2.460
  | Found hydrogenic basis function :  2 p   2.921
  | Found hydrogenic basis function :  2 p   4.145
  | Found hydrogenic basis function :  2 p   5.881
  | Found hydrogenic basis function :  3 d   6.414
  | Found hydrogenic basis function :  3 d   7.675
  | Found hydrogenic basis function :  4 f  10.809
  | Found hydrogenic basis function :  1 s   3.588
  Species H                   : Missing cutoff potential type.
  Defaulting to exp(1/x)/(1-x)^2 type cutoff potential.
  Species H : No 'logarithmic' tag. Using default grid for free atom:
  | Default logarithmic grid data [bohr] : 0.1000E-03 0.1000E+03 0.1012E+01
  Species H                   : Using default innermost maximum threshold i_radial=  2 for radial functions.
  Species H                   : Default cutoff onset for free atom density etc. is infinite
  since the product basis is used (hybrid functionals, Hartree-Fock, GW etc.).
  Species H                   : Basic radial grid will be enhanced according to radial_multiplier =   6, to contain   149 grid points.
 
  Finished reading input file 'control.in'. Consistency checks are next.
 
  Species H: Using default value for prodbas_acc =   1.000000E-02.
  Species H: Using default value max_l_prodbas =     5.
  Target number of points in a grid batch is not set. Defaulting to  100
  Method for grid partitioning is not set. Defaulting to parallel hash+maxmin partitioning.
  Batch size limit is not set. Defaulting to    200
  By default, will store active basis functions for each batch.
  If in need of memory, prune_basis_once .false. can be used to disable this option.
  communication_type for Hartree potential was not specified.
  Defaulting to calc_hartree .
  Pulay mixer: Number of initial linear mixing iterations not set.
  Defaulting to    0 iterations.
  Work space size for distributed Hartree potential not set.
  Defaulting to   0.200000E+03 MB.
  Algorithm-dependent basis array size parameters:
  | n_max_pulay                         :       10
  Calculation of forces was not defined in control.in. No forces will be calculated.
  Geometry relaxation not requested: no relaxation will be performed.
  No accuracy limit for integral partition fn. given. Defaulting to 0.1000E-14.
  No threshold value for u(r) in integrations given. Defaulting to 0.1000E-05.
  No accuracy for occupation numbers given. Defaulting to 0.1000E-07.
  No threshold value for occupation numbers given. Defaulting to 0.0000E+00.
  No accuracy for fermi level given. Defaulting to 0.1000E-19.
  Maximum # of iterations to find E_F not set. Defaulting to  200.
  Preferred method for the eigenvalue solver ('KS_method') not specified in 'control.in'.
  Calling blacs routine to test compilation state
  The best choice would be 'elpa', but your version of FHI-aims is compiled without scalapack support.
  Defaulting to 'lapack_fast' instead (serial solution, time will not improve with more CPUs).
  Will not use alltoall communication since running on < 1024 CPUs.
  Threshold for basis singularities not set.
  Default threshold for basis singularities: 0.1000E-04
  partition_type (choice of integration weights) for integrals was not specified.
  | Using a version of the partition function of Stratmann and coworkers ('stratmann_smoother').
  | At each grid point, the set of atoms used to build the partition table is smoothly restricted to
  | only those atoms whose free-atom density would be non-zero at that grid point.
  Partitioning for Hartree potential was not defined. Using partition_type for integrals.
  | Adjusted default value of keyword multip_moments_threshold to:       0.10000000E-11
  | This value may affect high angular momentum components of the Hartree potential in periodic systems.
  Spin handling was not defined in control.in. Defaulting to unpolarized case.
  Threshold for auxiliary basis singularities not set.
  Default threshold for auxiliary basis singularities: 0.1000E-04
  No q(lm)/r^(l+1) cutoff set for long-range Hartree potential.
  | Using default value of  0.100000E-09 .
  | Verify using the multipole_threshold keyword.
  Defaulting to new monopole extrapolation.
  Density update method: automatic selection selected.
  Default to 1D ("use_logsbt") integrations for auxiliary 2-center integrals.
  Default onset of logarithmic r-grid for SBT is-38.000000000000
  Default onset of logarithmic k-grid for SBT is-25.000000000000
  Default range of logarithmic r- and k-grid for SBT is 45.000000000000
  Default number of logarithmic r- and k-grid for SBT is  4096
------------------------------------------------------------


------------------------------------------------------------
          Reading geometry description geometry.in.
------------------------------------------------------------
  Input structure read successfully.
  The structure contains        2 atoms,  and a total of          2.000 electrons.

  Input geometry:
  | No unit cell requested.
  | Atomic structure:
  |       Atom                x [A]            y [A]            z [A]
  |    1: Species H              0.000000         0.000000         0.000000
  |    2: Species H              0.000000         0.000000         2.600000
  |

  | The smallest distance between any two atoms is         2.60000000 AA.
  |
  | The first atom of this pair is atom number                      1 .
  | The second atom of this pair is atom number                     2 .

  Number of empty states per atom not set in control.in .
  | Since you are using a method that relies on the unoccupied spectrum
  | (MP2,GW,RPA et al.), will use the full Hamiltonian size (see below)
  | as the max. possible number of states (occupied plus empty).

  Structure-dependent array size parameters: 
  | Maximum number of distinct radial functions  :       11
  | Maximum number of basis functions            :       62
  | Number of Kohn-Sham states (occupied + empty):       62
------------------------------------------------------------

------------------------------------------------------------
          Preparing all fixed parts of the calculation.
------------------------------------------------------------
  Determining machine precision:
    2.225073858507201E-308
  Setting up grids for atomic and cluster calculations.

  Creating wave function, potential, and density for free atoms.

  Species: H

  List of occupied orbitals and eigenvalues:
    n    l              occ      energy [Ha]    energy [eV]
    1    0           1.0000        -0.233457        -6.3527

  Creating fixed part of basis set: Ionic, confined, hydrogenic.
 
  H                    hydrogenic:
 
  List of hydrogenic basis orbitals: 
    n    l      effective z      eigenvalue [eV]  inner max. [A]     outer max. [A]     outer radius [A]   
    1    0         1.156555       -18.1992           0.460320           0.460320           5.243229
    1    0         1.686845       -38.7143           0.315118           0.315118           4.932336
    1    0         2.460277       -82.3547           0.215718           0.215718           3.815562
    2    1         2.921459       -29.0309           0.723605           0.723605           5.243229
    2    1         4.145018       -58.4405           0.507614           0.507614           4.813203
    2    1         5.881026      -117.6432           0.360475           0.360475           3.678162
    3    2         6.414469       -62.2013           0.741515           0.741515           4.993004
    3    2         7.675365       -89.0587           0.617279           0.617279           4.583499
    4    3        10.808700       -99.3454           0.778676           0.778676           4.696947
    1    0         3.588333      -175.1887           0.147673           0.147673           2.644120
 

  Adding cutoff potential to free-atom effective potential.
  Creating atomic-like basis functions for current effective potential.

  Species H                   :

  List of atomic basis orbitals and eigenvalues:
    n    l      energy [Ha]    energy [eV]    outer radius [A]
    1    0        -0.233418        -6.3516       5.373006

  Assembling full basis from fixed parts.
  | Species H :   atomic orbital   1 s accepted.
  | Species H :    hydro orbital   1 s accepted.
  | Species H :    hydro orbital   1 s accepted.
  | Species H :    hydro orbital   1 s accepted.
  | Species H :    hydro orbital   1 s accepted.
  | Species H :    hydro orbital   2 p accepted.
  | Species H :    hydro orbital   2 p accepted.
  | Species H :    hydro orbital   2 p accepted.
  | Species H :    hydro orbital   3 d accepted.
  | Species H :    hydro orbital   3 d accepted.
  | Species H :    hydro orbital   4 f accepted.
 
  Basis size parameters after reduction:
  | Total number of radial functions:       11
  | Total number of basis functions :       62
 
  Testing on-site integration grid accuracy.
  |  Species  Function  <phi|h_atom|phi> (log., in eV)  <phi|h_atom|phi> (rad., in eV)
           1        1                 -6.3519216712                 -6.3519215989
           1        2                  8.4716038567                  8.4716058028
           1        3                 58.3749927434                 58.3750109815
           1        4                178.9024737125                178.9026031671
           1        5                456.3642310330                456.3649721232
           1        6                 16.2415699263                 16.2415699338
           1        7                 68.2932618880                 68.2932619123
           1        8                188.3801588017                188.3801587562
           1        9                 49.9849006789                 49.9849006869
           1       10                114.3821731125                114.3821730675
           1       11                 88.0899419283                 88.0899419237

  Preparing densities etc. for the partition functions (integrals / Hartree potential).

  Preparations completed.
  max(cpu_time)          :      0.224 s.
  Wall clock time (cpu1) :      0.240 s.
------------------------------------------------------------

------------------------------------------------------------
          Begin self-consistency loop: Initialization.

          Date     :  20140812, Time     :  112048.743
------------------------------------------------------------

  Initializing index lists of integration centers etc. from given atomic structure:
  | Number of centers in hartree potential         :         2
  | Number of centers in hartree multipole         :         2
  | Number of centers in electron density summation:         2
  | Number of centers in basis integrals           :         2
  | Number of centers in integrals                 :         2
  Partitioning the integration grid into batches with parallel hashing+maxmin method.
  | Number of batches:     1938
  | Maximal batch size:     150
  | Minimal batch size:      65
  | Average batch size:      74.512
  | Standard deviation of batch sizes:      16.700

  Integration load balanced across     4 MPI tasks.
  Work distribution over tasks is as follows:
  Task     0 has      36069 integration points.
  Task     1 has      36094 integration points.
  Task     2 has      36095 integration points.
  Task     3 has      36146 integration points.
  Initializing partition tables, free-atom densities, potentials, etc. across the integration grid (initialize_grid_storage).
  | Original list of interatomic distances with           2 x          2 entries is created.
  | Net number of integration points:   144404
  | of which are non-zero points    :   139382
  Obtaining max. number of non-zero basis functions in each batch (get_n_compute_maxes).
  | Maximal number of non-zero basis functions:       62 in task     0
  | Maximal number of non-zero basis functions:       62 in task     1
  | Maximal number of non-zero basis functions:       62 in task     2
  | Maximal number of non-zero basis functions:       62 in task     3
  Selecting the method for density update.
  Loop over occupied states selected for charge density update.
  Integrating Hamiltonian matrix: batch-based integration.
  Time summed over all CPUs for integration: real work        1.430 s, elapsed        1.693 s
  Integrating overlap matrix.
  Time summed over all CPUs for integration: real work        0.786 s, elapsed        0.820 s

  Updating Kohn-Sham eigenvalues, eigenvectors, occupation numbers, and Fermi level.
  Solving generalized eigenproblem
  Updating Kohn-Sham eigenvalues and eigenfunctions.
  Transforming overlap matrix and checking for singularities.
  Overlap matrix is nonsingular:
  | Lowest eigenvalue:  0.105972E+00
  Solving real generalised eigenvalue problem by standard LAPACK (fast)
  Determining occupation numbers for Kohn-Sham eigenstates.
  | Chemical potential (Fermi level) in eV                 : -.63667032E+01
  | Error in electron count due to remaining E_F inaccuracy: 0.00000000E+00
  | Maximum occupation number of highest empty state:  0.00E+00

  Writing Kohn-Sham eigenvalues.

  State    Occupation    Eigenvalue [Ha]    Eigenvalue [eV]
      1       2.00000          -0.255878           -6.96280
      2       0.00000          -0.212066           -5.77060
      3       0.00000           0.099403            2.70490
      4       0.00000           0.112515            3.06168
      5       0.00000           0.193967            5.27812
      6       0.00000           0.201790            5.49099
      7       0.00000           0.201790            5.49099
      8       0.00000           0.290751            7.91175
      9       0.00000           0.290751            7.91175
     10       0.00000           0.472335           12.85289
     11       0.00000           0.733414           19.95721
     12       0.00000           0.821117           22.34374
     13       0.00000           0.914081           24.87340
     14       0.00000           0.914081           24.87340
     15       0.00000           0.987558           26.87283
     16       0.00000           0.992380           27.00403
     17       0.00000           0.992380           27.00403
     18       0.00000           1.051560           28.61441
     19       0.00000           1.051560           28.61441
     20       0.00000           1.176864           32.02411
     21       0.00000           1.176864           32.02411
     22       0.00000           1.360942           37.03312
     23       0.00000           1.552612           42.24873
     24       0.00000           1.552612           42.24873
     25       0.00000           1.662111           45.22835
     26       0.00000           1.683581           45.81257
     27       0.00000           1.683581           45.81257
     28       0.00000           2.133614           58.05858
     29       0.00000           3.110065           84.62917
     30       0.00000           3.110065           84.62917
     31       0.00000           3.126561           85.07805
     32       0.00000           3.176749           86.44373
     33       0.00000           3.176749           86.44373
     34       0.00000           3.228725           87.85807
     35       0.00000           3.228725           87.85807
     36       0.00000           3.244592           88.28984
     37       0.00000           3.244592           88.28984
     38       0.00000           3.298937           89.76864
     39       0.00000           3.298937           89.76864
     40       0.00000           3.432017           93.38994
     41       0.00000           3.432017           93.38994
     42       0.00000           3.492779           95.04335
     43       0.00000           3.535131           96.19580
     44       0.00000           3.720217          101.23227
     45       0.00000           4.895501          133.21336
     46       0.00000           4.895501          133.21336
     47       0.00000           4.965240          135.11104
     48       0.00000           4.965240          135.11104
     49       0.00000           5.079352          138.21621
     50       0.00000           5.079352          138.21621
     51       0.00000           5.092876          138.58422
     52       0.00000           5.375472          146.27403
     53       0.00000           5.375472          146.27403
     54       0.00000           5.974357          162.57053
     55       0.00000           8.112318          220.74739
     56       0.00000           8.112318          220.74739
     57       0.00000           8.376338          227.93175
     58       0.00000           8.402876          228.65389
     59       0.00000           8.402876          228.65389
     60       0.00000           9.400679          255.80548
     61       0.00000          21.432815          583.21658
     62       0.00000          21.887497          595.58911

  Highest occupied state (VBM) at     -6.96280213 eV
  | Occupation number:      2.00000000

  Lowest unoccupied state (CBM) at    -5.77060418 eV
  | Occupation number:      0.00000000

  Overall HOMO-LUMO gap:      1.19219794 eV.
  Calculating total energy contributions from superposition of free atom densities.

  Total energy components:
  | Sum of eigenvalues            :          -0.51175655 Ha         -13.92560425 eV
  | XC energy correction          :          -0.46881881 Ha         -12.75720890 eV
  | XC potential correction       :           0.61109998 Ha          16.62887654 eV
  | Free-atom electrostatic energy:          -0.56422169 Ha         -15.35325342 eV
  | Hartree energy correction     :           0.00000000 Ha           0.00000000 eV
  | Entropy correction            :           0.00000000 Ha           0.00000000 eV
  | ---------------------------
  | Total energy                  :          -0.93369707 Ha         -25.40719004 eV
  | Total energy, T -> 0          :          -0.93369707 Ha         -25.40719004 eV  <-- do not rely on this value for anything but (periodic) metals
  | Electronic free energy        :          -0.93369707 Ha         -25.40719004 eV

  Derived energy quantities:
  | Kinetic energy                :           0.81206271 Ha          22.09735074 eV
  | Electrostatic energy          :          -1.27694098 Ha         -34.74733187 eV
  | Energy correction for multipole
  | error in Hartree potential    :           0.00000000 Ha           0.00000000 eV
  | Sum of eigenvalues per atom                           :          -6.96280213 eV
  | Total energy (T->0) per atom                          :         -12.70359502 eV  <-- do not rely on this value for anything but (periodic) metals
  | Electronic free energy per atom                       :         -12.70359502 eV
 
 --------------------------------------------
  Constructing auxiliary basis (full product) ...
 
  Product basis:
  | charge radius: extent of product basis function
  | field radius: extent of its Coulomb potential
  | Species   l  charge radius    field radius  multipol momen
  |    H      5     4.813203 A      4.813203 A  2.676041E-15 a.u.
  |    H      4     4.932336 A      4.932336 A  2.417679E-16 a.u.
  |    H      3     5.054418 A      5.054418 A  ************ a.u.
  |    H      4     5.054418 A      5.054418 A  ************ a.u.
  |    H      3     5.116587 A      5.116587 A  1.642688E-15 a.u.
  |    H      2     5.179521 A      5.179521 A  6.126280E-16 a.u.
  |    H      3     5.179521 A      5.179521 A  ************ a.u.
  |    H      2     5.243229 A      5.243229 A  1.485543E-16 a.u.
  |    H      2     5.243229 A      5.243229 A  1.683301E-16 a.u.
  |    H      2     5.243229 A      5.243229 A  ************ a.u.
  |    H      3     5.243229 A      5.243229 A  ************ a.u.
  |    H      1     5.307721 A      5.307721 A  2.416866E-16 a.u.
  |    H      1     5.307721 A      5.307721 A  1.291012E-16 a.u.
  |    H      2     5.307721 A      5.307721 A  7.871382E-16 a.u.
  |    H      0     5.373006 A      5.373006 A  9.519909E-17 a.u.
  |    H      1     5.373006 A      5.373006 A  2.334090E-16 a.u.
  |    H      1     5.373006 A      5.373006 A  ************ a.u.
  |    H      1     5.373006 A      5.373006 A  ************ a.u.
  |    H      1     5.373006 A      5.373006 A  1.823473E-16 a.u.
  |    H      0     5.373006 A      5.439094 A  ************ a.u.
  |    H      0     5.439094 A      5.439094 A  ************ a.u.
  |    H      0     5.439094 A      5.505995 A  9.305319E-17 a.u.
  |    H      0     5.439094 A      5.505995 A  4.082184E-17 a.u.
  |    H      0     5.439094 A      5.505995 A  3.169850E-16 a.u.
  |    H      0     5.439094 A      5.505995 A  2.711689E-16 a.u.
  |    H      5     4.872405 A  1.325110E+02 A           19.619780 a.u.
  |    H      4     5.054418 A  3.771796E+02 A           14.639479 a.u.
  |    H      3     5.243229 A  1.836978E+03 A           11.555842 a.u.
  |    H      2     5.307721 A  2.095310E+04 A            4.940052 a.u.
  |    H      1     5.373006 A  2.512347E+06 A            1.793689 a.u.
  |    H      0     5.439094 A  4.604132E+12 A            0.692368 a.u.

  | Shrink_full_auxil_basis : there are       31  radial auxiliary wave functions
                            accepted and      90 rejected.
  | Shrink_full_auxil_basis : there are totally     286 partial auxiliary wave functions.
 
  | Number of product basis functions per thread :    72
  | Minimal requirement for computer memories :           0.005 Gbs
 
  Basis pair condensation :      1953  -->       1953
 
 ----------------------------------------------------
  Integrating the 3-basis-function Coulomb matrix ...
  | i_atom:            1
  | i_atom:            2
  Integrating the Coulomb interaction matrix for auxiliary basis functions (by atoms)

  SBT integration errors (all should be 'small'):
  large logFT aliasing -> increase N/lnrange
  large SBT aliasing -> decrease lnk0 & increase lnk0+lnrange
  large SBT ringing -> decrease lnr0 & increase lnr0+lnrange
  |            El't  L: logFT-al.   small-k   large-k   small-r   large-r
  Atomic logSBT for 2-center Coulomb matrix    :  max(cpu_time)    wall_clock(cpu1)
  | Multiplication with kernel                 :        0.024 s           0.010 s
  | Main matrix multiplication                 :        0.064 s           0.044 s
  | Analytic angular integration               :        0.000 s           0.002 s
  | Kernel construction                        :        0.004 s           0.002 s
  | Overall 2-center overlap time              :        0.096 s           0.062 s

  Difference of Coulomb matrix to its transposed:  1.9429E-16
  Task     0: Eigenvalues of the Coulomb matrix range from    1.9996E+00 to    3.2313E-04.
  Task     0: Using      286   eigenvalues out of rank      286   Coulomb matrix (auxiliary basis).
 
  Multiplying V^-0.5 x ovlp_3fn (1d-scalapack)

  Initialize hartree_potential_storage
  Max. number of atoms included in rho_multipole:            2

  End scf initialization - timings             :  max(cpu_time)    wall_clock(cpu1)
  | Time for scf. initialization               :       24.438 s          24.463 s
  | Boundary condition initialization          :        0.000 s           0.000 s
  | Integration                                :        0.632 s           0.629 s
  | Solution of K.-S. eqns.                    :        0.008 s           0.005 s
  | Grid partitioning                          :        0.328 s           0.329 s
  | Preloading free-atom quantities on grid    :        0.068 s           0.066 s
  | Free-atom superposition energy             :        0.032 s           0.035 s
  | Total energy evaluation                    :        0.000 s           0.000 s
  | Product basis setup: Total time            :       23.257 s          23.281 s
  | Product basis: | 3-center integrations     :       22.797 s          22.817 s
  | Product basis: | 2-center integrations     :        0.252 s           0.251 s
  | Product basis: | 2-center linear algebra   :        0.084 s           0.083 s
  | Product basis: | 3-center x 2-center       :        0.024 s           0.025 s
------------------------------------------------------------

------------------------------------------------------------
          Begin self-consistency iteration #    1

  Date     :  20140812, Time     :  112113.206
------------------------------------------------------------
  Evaluating new KS density.
  Integration grid: deviation in total charge (<rho> - N_e) =   1.243450E-14
  Pulay mixing of updated and previous charge densities.

  Evaluating partitioned Hartree potential by multipole expansion.
  | Analytical far-field extrapolation by fixed multipoles:
  | Hartree multipole sum: apparent total charge =  -0.104539E-06
  Summing up the Hartree potential.
  Time summed over all CPUs for potential: real work        1.019 s, elapsed        1.028 s
  | RMS charge density error from multipole expansion :   0.770093E-04

  Integrating Hamiltonian matrix: batch-based integration.
  Time summed over all CPUs for integration: real work        1.085 s, elapsed        1.101 s
  Evaluating the exchange matrix ... 

  Updating Kohn-Sham eigenvalues, eigenvectors, occupation numbers, and Fermi level.
  Solving generalized eigenproblem
  Updating Kohn-Sham eigenvalues and eigenfunctions.
  Solving real generalised eigenvalue problem by standard LAPACK (fast)
  Determining occupation numbers for Kohn-Sham eigenstates.
  | Chemical potential (Fermi level) in eV                 : -.58892214E+01
  | Error in electron count due to remaining E_F inaccuracy: 0.00000000E+00
  | Maximum occupation number of highest empty state:  0.00E+00

  Writing Kohn-Sham eigenvalues.

  State    Occupation    Eigenvalue [Ha]    Eigenvalue [eV]
      1       2.00000          -0.342249           -9.31308
      2       0.00000          -0.090601           -2.46537
      3       0.00000           0.194348            5.28848
      4       0.00000           0.208698            5.67896
      5       0.00000           0.351085            9.55351
      6       0.00000           0.351085            9.55351
      7       0.00000           0.357204            9.72001
      8       0.00000           0.454444           12.36604
      9       0.00000           0.454444           12.36604
     10       0.00000           0.648418           17.64436
     11       0.00000           0.945232           25.72108
     12       0.00000           1.031424           28.06646
     13       0.00000           1.110501           30.21828
     14       0.00000           1.110501           30.21828
     15       0.00000           1.187748           32.32026
     16       0.00000           1.189604           32.37076
     17       0.00000           1.189604           32.37076
     18       0.00000           1.252555           34.08376
     19       0.00000           1.252555           34.08376
     20       0.00000           1.390687           37.84253
     21       0.00000           1.390687           37.84253
     22       0.00000           1.605302           43.68249
     23       0.00000           1.820864           49.54822
     24       0.00000           1.820864           49.54822
     25       0.00000           1.935895           52.67838
     26       0.00000           1.950892           53.08647
     27       0.00000           1.950892           53.08647
     28       0.00000           2.402758           65.38237
     29       0.00000           3.372309           91.76519
     30       0.00000           3.372309           91.76519
     31       0.00000           3.390821           92.26893
     32       0.00000           3.439709           93.59925
     33       0.00000           3.439709           93.59925
     34       0.00000           3.492027           95.02288
     35       0.00000           3.492027           95.02288
     36       0.00000           3.508417           95.46887
     37       0.00000           3.508417           95.46887
     38       0.00000           3.566162           97.04019
     39       0.00000           3.566162           97.04019
     40       0.00000           3.706567          100.86081
     41       0.00000           3.706567          100.86081
     42       0.00000           3.795666          103.28531
     43       0.00000           3.891538          105.89414
     44       0.00000           4.055696          110.36111
     45       0.00000           5.234308          142.43277
     46       0.00000           5.234308          142.43277
     47       0.00000           5.302718          144.29428
     48       0.00000           5.302718          144.29429
     49       0.00000           5.417946          147.42981
     50       0.00000           5.417946          147.42981
     51       0.00000           5.436907          147.94576
     52       0.00000           5.719219          155.62787
     53       0.00000           5.719219          155.62787
     54       0.00000           6.332659          172.32041
     55       0.00000           8.528903          232.08327
     56       0.00000           8.528903          232.08327
     57       0.00000           8.795624          239.34111
     58       0.00000           8.820160          240.00878
     59       0.00000           8.820160          240.00878
     60       0.00000           9.820985          267.24259
     61       0.00000          21.936546          596.92377
     62       0.00000          22.391059          609.29173

  Highest occupied state (VBM) at     -9.31307761 eV
  | Occupation number:      2.00000000

  Lowest unoccupied state (CBM) at    -2.46536510 eV
  | Occupation number:      0.00000000

  Overall HOMO-LUMO gap:      6.84771251 eV.

  Total energy components:
  | Sum of eigenvalues            :          -0.68449862 Ha         -18.62615523 eV
  | XC energy correction          :           0.38135495 Ha          10.37719627 eV
  | XC potential correction       :           0.00000000 Ha           0.00000000 eV
  | Free-atom electrostatic energy:          -0.56422169 Ha         -15.35325342 eV
  | Hartree energy correction     :           0.00373765 Ha           0.10170665 eV
  | Entropy correction            :           0.00000000 Ha           0.00000000 eV
  | ---------------------------
  | Total energy                  :          -0.86362771 Ha         -23.50050573 eV
  | Total energy, T -> 0          :          -0.86362771 Ha         -23.50050573 eV  <-- do not rely on this value for anything but (periodic) metals
  | Electronic free energy        :          -0.86362771 Ha         -23.50050573 eV

  Derived energy quantities:
  | Kinetic energy                :           0.76564974 Ha          20.83438940 eV
  | Electrostatic energy          :          -1.24792250 Ha         -33.95769886 eV
  | Energy correction for multipole
  | error in Hartree potential    :          -0.00001175 Ha          -0.00031986 eV
  | Sum of eigenvalues per atom                           :          -9.31307761 eV
  | Total energy (T->0) per atom                          :         -11.75025287 eV  <-- do not rely on this value for anything but (periodic) metals
  | Electronic free energy per atom                       :         -11.75025287 eV

  Self-consistency convergence accuracy:
  | Change of charge density      : 0.2565E-01
  | Change of sum of eigenvalues  : -.4701E+01 eV
  | Change of total energy        : 0.1907E+01 eV

  End self-consistency iteration #     1       :  max(cpu_time)    wall_clock(cpu1)
  | Time for this iteration                    :        0.756 s           0.756 s
  | Charge density update                      :        0.144 s           0.141 s
  | Density mixing                             :        0.004 s           0.003 s
  | Hartree multipole update                   :        0.064 s           0.064 s
  | Hartree multipole summation                :        0.260 s           0.258 s
  | Integration                                :        0.276 s           0.275 s
  | Fock matrix evaluation                     :        0.012 s           0.012 s
  | Solution of K.-S. eqns.                    :        0.004 s           0.002 s
  | Total energy evaluation                    :        0.000 s           0.000 s
------------------------------------------------------------

------------------------------------------------------------
          Begin self-consistency iteration #    2

  Date     :  20140812, Time     :  112113.962
------------------------------------------------------------
  Evaluating new KS density.
  Integration grid: deviation in total charge (<rho> - N_e) =   7.549517E-15
  Pulay mixing of updated and previous charge densities.

  Evaluating partitioned Hartree potential by multipole expansion.
  | Analytical far-field extrapolation by fixed multipoles:
  | Hartree multipole sum: apparent total charge =  -0.953694E-07
  Summing up the Hartree potential.
  Time summed over all CPUs for potential: real work        1.008 s, elapsed        1.016 s
  | RMS charge density error from multipole expansion :   0.328315E-04

  Integrating Hamiltonian matrix: batch-based integration.
  Time summed over all CPUs for integration: real work        1.081 s, elapsed        1.107 s
  Evaluating the exchange matrix ... 

  Updating Kohn-Sham eigenvalues, eigenvectors, occupation numbers, and Fermi level.
  Solving generalized eigenproblem
  Updating Kohn-Sham eigenvalues and eigenfunctions.
  Solving real generalised eigenvalue problem by standard LAPACK (fast)
  Determining occupation numbers for Kohn-Sham eigenstates.
  | Chemical potential (Fermi level) in eV                 : -.58119518E+01
  | Error in electron count due to remaining E_F inaccuracy: 0.00000000E+00
  | Maximum occupation number of highest empty state:  0.00E+00

  Highest occupied state (VBM) at     -9.24361360 eV
  | Occupation number:      2.00000000

  Lowest unoccupied state (CBM) at    -2.38029000 eV
  | Occupation number:      0.00000000

  Overall HOMO-LUMO gap:      6.86332360 eV.

  Total energy components:
  | Sum of eigenvalues            :          -0.67939311 Ha         -18.48722719 eV
  | XC energy correction          :           0.37606851 Ha          10.23334479 eV
  | XC potential correction       :           0.00000000 Ha           0.00000000 eV
  | Free-atom electrostatic energy:          -0.56422169 Ha         -15.35325342 eV
  | Hartree energy correction     :          -0.00845745 Ha          -0.23013891 eV
  | Entropy correction            :           0.00000000 Ha           0.00000000 eV
  | ---------------------------
  | Total energy                  :          -0.87600375 Ha         -23.83727474 eV
  | Total energy, T -> 0          :          -0.87600375 Ha         -23.83727474 eV  <-- do not rely on this value for anything but (periodic) metals
  | Electronic free energy        :          -0.87600375 Ha         -23.83727474 eV

  Derived energy quantities:
  | Kinetic energy                :           0.78461492 Ha          21.35045837 eV
  | Electrostatic energy          :          -1.28455016 Ha         -34.95438831 eV
  | Energy correction for multipole
  | error in Hartree potential    :          -0.00000224 Ha          -0.00006090 eV
  | Sum of eigenvalues per atom                           :          -9.24361360 eV
  | Total energy (T->0) per atom                          :         -11.91863737 eV  <-- do not rely on this value for anything but (periodic) metals
  | Electronic free energy per atom                       :         -11.91863737 eV

  Self-consistency convergence accuracy:
  | Change of charge density      : 0.3417E-01
  | Change of sum of eigenvalues  : 0.1389E+00 eV
  | Change of total energy        : -.3368E+00 eV

  End self-consistency iteration #     2       :  max(cpu_time)    wall_clock(cpu1)
  | Time for this iteration                    :        0.752 s           0.750 s
  | Charge density update                      :        0.136 s           0.136 s
  | Density mixing                             :        0.008 s           0.005 s
  | Hartree multipole update                   :        0.064 s           0.063 s
  | Hartree multipole summation                :        0.256 s           0.255 s
  | Integration                                :        0.276 s           0.277 s
  | Fock matrix evaluation                     :        0.012 s           0.012 s
  | Solution of K.-S. eqns.                    :        0.000 s           0.001 s
  | Total energy evaluation                    :        0.000 s           0.001 s
------------------------------------------------------------

------------------------------------------------------------
          Begin self-consistency iteration #    3

  Date     :  20140812, Time     :  112114.712
------------------------------------------------------------
  Evaluating new KS density.
  Integration grid: deviation in total charge (<rho> - N_e) =  -3.996803E-15
  Pulay mixing of updated and previous charge densities.

  Evaluating partitioned Hartree potential by multipole expansion.
  | Analytical far-field extrapolation by fixed multipoles:
  | Hartree multipole sum: apparent total charge =  -0.106944E-06
  Summing up the Hartree potential.
  Time summed over all CPUs for potential: real work        1.009 s, elapsed        1.020 s
  | RMS charge density error from multipole expansion :   0.186261E-03

  Integrating Hamiltonian matrix: batch-based integration.
  Time summed over all CPUs for integration: real work        1.090 s, elapsed        1.126 s
  Evaluating the exchange matrix ... 

  Updating Kohn-Sham eigenvalues, eigenvectors, occupation numbers, and Fermi level.
  Solving generalized eigenproblem
  Updating Kohn-Sham eigenvalues and eigenfunctions.
  Solving real generalised eigenvalue problem by standard LAPACK (fast)
  Determining occupation numbers for Kohn-Sham eigenstates.
  | Chemical potential (Fermi level) in eV                 : -.60850979E+01
  | Error in electron count due to remaining E_F inaccuracy: 0.00000000E+00
  | Maximum occupation number of highest empty state:  0.00E+00

  Highest occupied state (VBM) at     -9.48925531 eV
  | Occupation number:      2.00000000

  Lowest unoccupied state (CBM) at    -2.68094052 eV
  | Occupation number:      0.00000000

  Overall HOMO-LUMO gap:      6.80831480 eV.

  Total energy components:
  | Sum of eigenvalues            :          -0.69744745 Ha         -18.97851062 eV
  | XC energy correction          :           0.36945280 Ha          10.05332231 eV
  | XC potential correction       :           0.00000000 Ha           0.00000000 eV
  | Free-atom electrostatic energy:          -0.56422169 Ha         -15.35325342 eV
  | Hartree energy correction     :           0.02998596 Ha           0.81595941 eV
  | Entropy correction            :           0.00000000 Ha           0.00000000 eV
  | ---------------------------
  | Total energy                  :          -0.86223038 Ha         -23.46248232 eV
  | Total energy, T -> 0          :          -0.86223038 Ha         -23.46248232 eV  <-- do not rely on this value for anything but (periodic) metals
  | Electronic free energy        :          -0.86223038 Ha         -23.46248232 eV

  Derived energy quantities:
  | Kinetic energy                :           0.66490027 Ha          18.09285702 eV
  | Electrostatic energy          :          -1.15767785 Ha         -31.50201703 eV
  | Energy correction for multipole
  | error in Hartree potential    :          -0.00003631 Ha          -0.00098810 eV
  | Sum of eigenvalues per atom                           :          -9.48925531 eV
  | Total energy (T->0) per atom                          :         -11.73124116 eV  <-- do not rely on this value for anything but (periodic) metals
  | Electronic free energy per atom                       :         -11.73124116 eV

  Self-consistency convergence accuracy:
  | Change of charge density      : 0.4745E-01
  | Change of sum of eigenvalues  : -.4913E+00 eV
  | Change of total energy        : 0.3748E+00 eV

  End self-consistency iteration #     3       :  max(cpu_time)    wall_clock(cpu1)
  | Time for this iteration                    :        0.760 s           0.759 s
  | Charge density update                      :        0.136 s           0.136 s
  | Density mixing                             :        0.008 s           0.008 s
  | Hartree multipole update                   :        0.064 s           0.064 s
  | Hartree multipole summation                :        0.256 s           0.256 s
  | Integration                                :        0.284 s           0.282 s
  | Fock matrix evaluation                     :        0.012 s           0.012 s
  | Solution of K.-S. eqns.                    :        0.004 s           0.001 s
  | Total energy evaluation                    :        0.000 s           0.000 s
------------------------------------------------------------

------------------------------------------------------------
          Begin self-consistency iteration #    4

  Date     :  20140812, Time     :  112115.472
------------------------------------------------------------
  Evaluating new KS density.
  Integration grid: deviation in total charge (<rho> - N_e) =   0.000000E+00
  Pulay mixing of updated and previous charge densities.

  Evaluating partitioned Hartree potential by multipole expansion.
  | Analytical far-field extrapolation by fixed multipoles:
  | Hartree multipole sum: apparent total charge =  -0.109851E-06
  Summing up the Hartree potential.
  Time summed over all CPUs for potential: real work        1.011 s, elapsed        1.019 s
  | RMS charge density error from multipole expansion :   0.200186E-03

  Integrating Hamiltonian matrix: batch-based integration.
  Time summed over all CPUs for integration: real work        1.074 s, elapsed        1.080 s
  Evaluating the exchange matrix ... 

  Updating Kohn-Sham eigenvalues, eigenvectors, occupation numbers, and Fermi level.
  Solving generalized eigenproblem
  Updating Kohn-Sham eigenvalues and eigenfunctions.
  Solving real generalised eigenvalue problem by standard LAPACK (fast)
  Determining occupation numbers for Kohn-Sham eigenstates.
  | Chemical potential (Fermi level) in eV                 : -.61223411E+01
  | Error in electron count due to remaining E_F inaccuracy: 0.00000000E+00
  | Maximum occupation number of highest empty state:  0.00E+00

  Highest occupied state (VBM) at     -9.52291827 eV
  | Occupation number:      2.00000000

  Lowest unoccupied state (CBM) at    -2.72176399 eV
  | Occupation number:      0.00000000

  Overall HOMO-LUMO gap:      6.80115428 eV.

  Total energy components:
  | Sum of eigenvalues            :          -0.69992163 Ha         -19.04583654 eV
  | XC energy correction          :           0.36676243 Ha           9.98011353 eV
  | XC potential correction       :           0.00000000 Ha           0.00000000 eV
  | Free-atom electrostatic energy:          -0.56422169 Ha         -15.35325342 eV
  | Hartree energy correction     :           0.03468621 Ha           0.94385978 eV
  | Entropy correction            :           0.00000000 Ha           0.00000000 eV
  | ---------------------------
  | Total energy                  :          -0.86269468 Ha         -23.47511666 eV
  | Total energy, T -> 0          :          -0.86269468 Ha         -23.47511666 eV  <-- do not rely on this value for anything but (periodic) metals
  | Electronic free energy        :          -0.86269468 Ha         -23.47511666 eV

  Derived energy quantities:
  | Kinetic energy                :           0.64982760 Ha          17.68270871 eV
  | Electrostatic energy          :          -1.14575985 Ha         -31.17771184 eV
  | Energy correction for multipole
  | error in Hartree potential    :          -0.00004021 Ha          -0.00109412 eV
  | Sum of eigenvalues per atom                           :          -9.52291827 eV
  | Total energy (T->0) per atom                          :         -11.73755833 eV  <-- do not rely on this value for anything but (periodic) metals
  | Electronic free energy per atom                       :         -11.73755833 eV

  Self-consistency convergence accuracy:
  | Change of charge density      : 0.3560E-02
  | Change of sum of eigenvalues  : -.6733E-01 eV
  | Change of total energy        : -.1263E-01 eV

  End self-consistency iteration #     4       :  max(cpu_time)    wall_clock(cpu1)
  | Time for this iteration                    :        0.756 s           0.755 s
  | Charge density update                      :        0.136 s           0.136 s
  | Density mixing                             :        0.012 s           0.013 s
  | Hartree multipole update                   :        0.064 s           0.064 s
  | Hartree multipole summation                :        0.256 s           0.256 s
  | Integration                                :        0.272 s           0.270 s
  | Fock matrix evaluation                     :        0.012 s           0.012 s
  | Solution of K.-S. eqns.                    :        0.000 s           0.002 s
  | Total energy evaluation                    :        0.000 s           0.000 s
------------------------------------------------------------

------------------------------------------------------------
          Begin self-consistency iteration #    5

  Date     :  20140812, Time     :  112116.227
------------------------------------------------------------
  Evaluating new KS density.
  Integration grid: deviation in total charge (<rho> - N_e) =   1.776357E-15
  Pulay mixing of updated and previous charge densities.

  Evaluating partitioned Hartree potential by multipole expansion.
  | Analytical far-field extrapolation by fixed multipoles:
  | Hartree multipole sum: apparent total charge =  -0.109799E-06
  Summing up the Hartree potential.
  Time summed over all CPUs for potential: real work        1.020 s, elapsed        1.029 s
  | RMS charge density error from multipole expansion :   0.200477E-03

  Integrating Hamiltonian matrix: batch-based integration.
  Time summed over all CPUs for integration: real work        1.085 s, elapsed        1.089 s
  Evaluating the exchange matrix ... 

  Updating Kohn-Sham eigenvalues, eigenvectors, occupation numbers, and Fermi level.
  Solving generalized eigenproblem
  Updating Kohn-Sham eigenvalues and eigenfunctions.
  Solving real generalised eigenvalue problem by standard LAPACK (fast)
  Determining occupation numbers for Kohn-Sham eigenstates.
  | Chemical potential (Fermi level) in eV                 : -.61248494E+01
  | Error in electron count due to remaining E_F inaccuracy: 0.00000000E+00
  | Maximum occupation number of highest empty state:  0.00E+00

  Highest occupied state (VBM) at     -9.52516933 eV
  | Occupation number:      2.00000000

  Lowest unoccupied state (CBM) at    -2.72452954 eV
  | Occupation number:      0.00000000

  Overall HOMO-LUMO gap:      6.80063979 eV.

  Total energy components:
  | Sum of eigenvalues            :          -0.70008708 Ha         -19.05033865 eV
  | XC energy correction          :           0.36641220 Ha           9.97058331 eV
  | XC potential correction       :           0.00000000 Ha           0.00000000 eV
  | Free-atom electrostatic energy:          -0.56422169 Ha         -15.35325342 eV
  | Hartree energy correction     :           0.03502459 Ha           0.95306747 eV
  | Entropy correction            :           0.00000000 Ha           0.00000000 eV
  | ---------------------------
  | Total energy                  :          -0.86287198 Ha         -23.47994129 eV
  | Total energy, T -> 0          :          -0.86287198 Ha         -23.47994129 eV  <-- do not rely on this value for anything but (periodic) metals
  | Electronic free energy        :          -0.86287198 Ha         -23.47994129 eV

  Derived energy quantities:
  | Kinetic energy                :           0.64880878 Ha          17.65498514 eV
  | Electrostatic energy          :          -1.14526856 Ha         -31.16434311 eV
  | Energy correction for multipole
  | error in Hartree potential    :          -0.00004043 Ha          -0.00110008 eV
  | Sum of eigenvalues per atom                           :          -9.52516933 eV
  | Total energy (T->0) per atom                          :         -11.73997064 eV  <-- do not rely on this value for anything but (periodic) metals
  | Electronic free energy per atom                       :         -11.73997064 eV

  Self-consistency convergence accuracy:
  | Change of charge density      : 0.8230E-04
  | Change of sum of eigenvalues  : -.4502E-02 eV
  | Change of total energy        : -.4825E-02 eV

  End self-consistency iteration #     5       :  max(cpu_time)    wall_clock(cpu1)
  | Time for this iteration                    :        0.768 s           0.765 s
  | Charge density update                      :        0.144 s           0.140 s
  | Density mixing                             :        0.016 s           0.016 s
  | Hartree multipole update                   :        0.064 s           0.064 s
  | Hartree multipole summation                :        0.260 s           0.258 s
  | Integration                                :        0.272 s           0.273 s
  | Fock matrix evaluation                     :        0.012 s           0.012 s
  | Solution of K.-S. eqns.                    :        0.004 s           0.001 s
  | Total energy evaluation                    :        0.000 s           0.001 s
------------------------------------------------------------

------------------------------------------------------------
          Begin self-consistency iteration #    6

  Date     :  20140812, Time     :  112116.992
------------------------------------------------------------
  Evaluating new KS density.
  Integration grid: deviation in total charge (<rho> - N_e) =  -3.996803E-15
  Pulay mixing of updated and previous charge densities.

  Evaluating partitioned Hartree potential by multipole expansion.
  | Analytical far-field extrapolation by fixed multipoles:
  | Hartree multipole sum: apparent total charge =  -0.109761E-06
  Summing up the Hartree potential.
  Time summed over all CPUs for potential: real work        1.017 s, elapsed        1.026 s
  | RMS charge density error from multipole expansion :   0.200257E-03

  Integrating Hamiltonian matrix: batch-based integration.
  Time summed over all CPUs for integration: real work        1.079 s, elapsed        1.095 s
  Evaluating the exchange matrix ... 

  Updating Kohn-Sham eigenvalues, eigenvectors, occupation numbers, and Fermi level.
  Solving generalized eigenproblem
  Updating Kohn-Sham eigenvalues and eigenfunctions.
  Solving real generalised eigenvalue problem by standard LAPACK (fast)
  Determining occupation numbers for Kohn-Sham eigenstates.
  | Chemical potential (Fermi level) in eV                 : -.61242777E+01
  | Error in electron count due to remaining E_F inaccuracy: 0.00000000E+00
  | Maximum occupation number of highest empty state:  0.00E+00

  Highest occupied state (VBM) at     -9.52465695 eV
  | Occupation number:      2.00000000

  Lowest unoccupied state (CBM) at    -2.72389845 eV
  | Occupation number:      0.00000000

  Overall HOMO-LUMO gap:      6.80075850 eV.

  Total energy components:
  | Sum of eigenvalues            :          -0.70004942 Ha         -19.04931390 eV
  | XC energy correction          :           0.36640701 Ha           9.97044212 eV
  | XC potential correction       :           0.00000000 Ha           0.00000000 eV
  | Free-atom electrostatic energy:          -0.56422169 Ha         -15.35325342 eV
  | Hartree energy correction     :           0.03495226 Ha           0.95109935 eV
  | Entropy correction            :           0.00000000 Ha           0.00000000 eV
  | ---------------------------
  | Total energy                  :          -0.86291184 Ha         -23.48102585 eV
  | Total energy, T -> 0          :          -0.86291184 Ha         -23.48102585 eV  <-- do not rely on this value for anything but (periodic) metals
  | Electronic free energy        :          -0.86291184 Ha         -23.48102585 eV

  Derived energy quantities:
  | Kinetic energy                :           0.64893989 Ha          17.65855296 eV
  | Electrostatic energy          :          -1.14544472 Ha         -31.16913669 eV
  | Energy correction for multipole
  | error in Hartree potential    :          -0.00004037 Ha          -0.00109853 eV
  | Sum of eigenvalues per atom                           :          -9.52465695 eV
  | Total energy (T->0) per atom                          :         -11.74051292 eV  <-- do not rely on this value for anything but (periodic) metals
  | Electronic free energy per atom                       :         -11.74051292 eV

  Self-consistency convergence accuracy:
  | Change of charge density      : 0.5406E-04
  | Change of sum of eigenvalues  : 0.1025E-02 eV
  | Change of total energy        : -.1085E-02 eV

  End self-consistency iteration #     6       :  max(cpu_time)    wall_clock(cpu1)
  | Time for this iteration                    :        0.764 s           0.764 s
  | Charge density update                      :        0.136 s           0.135 s
  | Density mixing                             :        0.020 s           0.020 s
  | Hartree multipole update                   :        0.064 s           0.063 s
  | Hartree multipole summation                :        0.260 s           0.258 s
  | Integration                                :        0.276 s           0.274 s
  | Fock matrix evaluation                     :        0.012 s           0.012 s
  | Solution of K.-S. eqns.                    :        0.000 s           0.002 s
  | Total energy evaluation                    :        0.004 s           0.000 s
------------------------------------------------------------

------------------------------------------------------------
          Begin self-consistency iteration #    7

  Date     :  20140812, Time     :  112117.757
------------------------------------------------------------
  Evaluating new KS density.
  Integration grid: deviation in total charge (<rho> - N_e) =   8.881784E-16
  Pulay mixing of updated and previous charge densities.

  Evaluating partitioned Hartree potential by multipole expansion.
  | Analytical far-field extrapolation by fixed multipoles:
  | Hartree multipole sum: apparent total charge =  -0.109756E-06
  Summing up the Hartree potential.
  Time summed over all CPUs for potential: real work        1.010 s, elapsed        1.016 s
  | RMS charge density error from multipole expansion :   0.200251E-03

  Integrating Hamiltonian matrix: batch-based integration.
  Time summed over all CPUs for integration: real work        1.079 s, elapsed        1.101 s
  Evaluating the exchange matrix ... 

  Updating Kohn-Sham eigenvalues, eigenvectors, occupation numbers, and Fermi level.
  Solving generalized eigenproblem
  Updating Kohn-Sham eigenvalues and eigenfunctions.
  Solving real generalised eigenvalue problem by standard LAPACK (fast)
  Determining occupation numbers for Kohn-Sham eigenstates.
  | Chemical potential (Fermi level) in eV                 : -.61242636E+01
  | Error in electron count due to remaining E_F inaccuracy: 0.00000000E+00
  | Maximum occupation number of highest empty state:  0.00E+00

  Highest occupied state (VBM) at     -9.52464977 eV
  | Occupation number:      2.00000000

  Lowest unoccupied state (CBM) at    -2.72387746 eV
  | Occupation number:      0.00000000

  Overall HOMO-LUMO gap:      6.80077231 eV.

  Total energy components:
  | Sum of eigenvalues            :          -0.70004889 Ha         -19.04929955 eV
  | XC energy correction          :           0.36641165 Ha           9.97056823 eV
  | XC potential correction       :           0.00000000 Ha           0.00000000 eV
  | Free-atom electrostatic energy:          -0.56422169 Ha         -15.35325342 eV
  | Hartree energy correction     :           0.03495034 Ha           0.95104709 eV
  | Entropy correction            :           0.00000000 Ha           0.00000000 eV
  | ---------------------------
  | Total energy                  :          -0.86290860 Ha         -23.48093766 eV
  | Total energy, T -> 0          :          -0.86290860 Ha         -23.48093766 eV  <-- do not rely on this value for anything but (periodic) metals
  | Electronic free energy        :          -0.86290860 Ha         -23.48093766 eV

  Derived energy quantities:
  | Kinetic energy                :           0.64895688 Ha          17.65901525 eV
  | Electrostatic energy          :          -1.14545383 Ha         -31.16938468 eV
  | Energy correction for multipole
  | error in Hartree potential    :          -0.00004037 Ha          -0.00109851 eV
  | Sum of eigenvalues per atom                           :          -9.52464977 eV
  | Total energy (T->0) per atom                          :         -11.74046883 eV  <-- do not rely on this value for anything but (periodic) metals
  | Electronic free energy per atom                       :         -11.74046883 eV

  Self-consistency convergence accuracy:
  | Change of charge density      : 0.3286E-05
  | Change of sum of eigenvalues  : 0.1435E-04 eV
  | Change of total energy        : 0.8819E-04 eV

  End self-consistency iteration #     7       :  max(cpu_time)    wall_clock(cpu1)
  | Time for this iteration                    :        0.768 s           0.768 s
  | Charge density update                      :        0.140 s           0.136 s
  | Density mixing                             :        0.024 s           0.023 s
  | Hartree multipole update                   :        0.064 s           0.064 s
  | Hartree multipole summation                :        0.256 s           0.255 s
  | Integration                                :        0.276 s           0.275 s
  | Fock matrix evaluation                     :        0.012 s           0.012 s
  | Solution of K.-S. eqns.                    :        0.000 s           0.002 s
  | Total energy evaluation                    :        0.000 s           0.000 s
------------------------------------------------------------

------------------------------------------------------------
          Begin self-consistency iteration #    8

  Date     :  20140812, Time     :  112118.525
------------------------------------------------------------
  Evaluating new KS density.
  Integration grid: deviation in total charge (<rho> - N_e) =   0.000000E+00
  Pulay mixing of updated and previous charge densities.

  Evaluating partitioned Hartree potential by multipole expansion.
  | Analytical far-field extrapolation by fixed multipoles:
  | Hartree multipole sum: apparent total charge =  -0.109756E-06
  Summing up the Hartree potential.
  Time summed over all CPUs for potential: real work        1.009 s, elapsed        1.017 s
  | RMS charge density error from multipole expansion :   0.200251E-03

  Integrating Hamiltonian matrix: batch-based integration.
  Time summed over all CPUs for integration: real work        1.073 s, elapsed        1.085 s
  Evaluating the exchange matrix ... 

  Updating Kohn-Sham eigenvalues, eigenvectors, occupation numbers, and Fermi level.
  Solving generalized eigenproblem
  Updating Kohn-Sham eigenvalues and eigenfunctions.
  Solving real generalised eigenvalue problem by standard LAPACK (fast)
  Determining occupation numbers for Kohn-Sham eigenstates.
  | Chemical potential (Fermi level) in eV                 : -.61242623E+01
  | Error in electron count due to remaining E_F inaccuracy: 0.00000000E+00
  | Maximum occupation number of highest empty state:  0.00E+00

  Highest occupied state (VBM) at     -9.52464850 eV
  | Occupation number:      2.00000000

  Lowest unoccupied state (CBM) at    -2.72387614 eV
  | Occupation number:      0.00000000

  Overall HOMO-LUMO gap:      6.80077236 eV.

  Total energy components:
  | Sum of eigenvalues            :          -0.70004880 Ha         -19.04929700 eV
  | XC energy correction          :           0.36641160 Ha           9.97056696 eV
  | XC potential correction       :           0.00000000 Ha           0.00000000 eV
  | Free-atom electrostatic energy:          -0.56422169 Ha         -15.35325342 eV
  | Hartree energy correction     :           0.03495032 Ha           0.95104657 eV
  | Entropy correction            :           0.00000000 Ha           0.00000000 eV
  | ---------------------------
  | Total energy                  :          -0.86290857 Ha         -23.48093689 eV
  | Total energy, T -> 0          :          -0.86290857 Ha         -23.48093689 eV  <-- do not rely on this value for anything but (periodic) metals
  | Electronic free energy        :          -0.86290857 Ha         -23.48093689 eV

  Derived energy quantities:
  | Kinetic energy                :           0.64895696 Ha          17.65901736 eV
  | Electrostatic energy          :          -1.14545393 Ha         -31.16938730 eV
  | Energy correction for multipole
  | error in Hartree potential    :          -0.00004037 Ha          -0.00109851 eV
  | Sum of eigenvalues per atom                           :          -9.52464850 eV
  | Total energy (T->0) per atom                          :         -11.74046845 eV  <-- do not rely on this value for anything but (periodic) metals
  | Electronic free energy per atom                       :         -11.74046845 eV

  Self-consistency convergence accuracy:
  | Change of charge density      : 0.8928E-07
  | Change of sum of eigenvalues  : 0.2548E-05 eV
  | Change of total energy        : 0.7617E-06 eV

  Writing Kohn-Sham eigenvalues.

  State    Occupation    Eigenvalue [Ha]    Eigenvalue [eV]
      1       2.00000          -0.350024           -9.52465
      2       0.00000          -0.100101           -2.72388
      3       0.00000           0.194472            5.29187
      4       0.00000           0.204718            5.57066
      5       0.00000           0.347179            9.44722
      6       0.00000           0.347179            9.44722
      7       0.00000           0.352031            9.57924
      8       0.00000           0.447528           12.17784
      9       0.00000           0.447528           12.17784
     10       0.00000           0.639081           17.39028
     11       0.00000           0.934892           25.43970
     12       0.00000           1.020678           27.77407
     13       0.00000           1.105030           30.06939
     14       0.00000           1.105030           30.06939
     15       0.00000           1.182786           32.18525
     16       0.00000           1.183025           32.19175
     17       0.00000           1.183025           32.19175
     18       0.00000           1.244979           33.87759
     19       0.00000           1.244979           33.87759
     20       0.00000           1.384563           37.67587
     21       0.00000           1.384563           37.67587
     22       0.00000           1.598635           43.50107
     23       0.00000           1.803477           49.07511
     24       0.00000           1.803477           49.07511
     25       0.00000           1.918213           52.19723
     26       0.00000           1.931354           52.55482
     27       0.00000           1.931354           52.55482
     28       0.00000           2.383142           64.84860
     29       0.00000           3.359094           91.40560
     30       0.00000           3.359094           91.40560
     31       0.00000           3.378538           91.93471
     32       0.00000           3.426230           93.23247
     33       0.00000           3.426230           93.23247
     34       0.00000           3.477411           94.62516
     35       0.00000           3.477411           94.62516
     36       0.00000           3.493705           95.06854
     37       0.00000           3.493705           95.06854
     38       0.00000           3.552876           96.67868
     39       0.00000           3.552876           96.67868
     40       0.00000           3.695106          100.54894
     41       0.00000           3.695106          100.54894
     42       0.00000           3.780424          102.87056
     43       0.00000           3.862244          105.09700
     44       0.00000           4.031167          109.69363
     45       0.00000           5.208941          141.74249
     46       0.00000           5.208941          141.74249
     47       0.00000           5.276095          143.56986
     48       0.00000           5.276095          143.56986
     49       0.00000           5.390483          146.68252
     50       0.00000           5.390483          146.68252
     51       0.00000           5.411933          147.26618
     52       0.00000           5.692063          154.88890
     53       0.00000           5.692063          154.88890
     54       0.00000           6.306264          171.60218
     55       0.00000           8.490392          231.03531
     56       0.00000           8.490392          231.03531
     57       0.00000           8.757005          238.29022
     58       0.00000           8.780617          238.93274
     59       0.00000           8.780617          238.93274
     60       0.00000           9.780593          266.14348
     61       0.00000          21.888028          595.60355
     62       0.00000          22.342244          607.96340

  Highest occupied state (VBM) at     -9.52464850 eV
  | Occupation number:      2.00000000

  Lowest unoccupied state (CBM) at    -2.72387614 eV
  | Occupation number:      0.00000000

  Overall HOMO-LUMO gap:      6.80077236 eV.

  Self-consistency cycle converged.

  End self-consistency iteration #     8       :  max(cpu_time)    wall_clock(cpu1)
  | Time for this iteration                    :        0.776 s           0.777 s
  | Charge density update                      :        0.144 s           0.142 s
  | Density mixing                             :        0.028 s           0.028 s
  | Hartree multipole update                   :        0.064 s           0.064 s
  | Hartree multipole summation                :        0.256 s           0.256 s
  | Integration                                :        0.272 s           0.271 s
  | Fock matrix evaluation                     :        0.012 s           0.012 s
  | Solution of K.-S. eqns.                    :        0.004 s           0.002 s
  | Total energy evaluation                    :        0.000 s           0.000 s
------------------------------------------------------------

  Energy and forces in a compact form:
  | Total energy uncorrected      :         -0.234809368935202E+02 eV
  | Total energy corrected        :         -0.234809368935202E+02 eV  <-- do not rely on this value for anything but (periodic) metals
  | Electronic free energy        :         -0.234809368935202E+02 eV

  ------------------------------------ 
  Start decomposition of the XC Energy 
  ------------------------------------ 
  Hartree-Fock part   :          0.366411601 Ha              9.970566956 eV
  ------------------------------------ 
  X Energy            :          0.366411601 Ha              9.970566956 eV
  C Energy GGA        :          0.000000000 Ha              0.000000000 eV
  Total XC Energy     :          0.366411601 Ha              9.970566956 eV
  LDA X and C from self-consistent density 
  X Energy LDA        :         -0.355237888 Ha             -9.666514763 eV
  C Energy LDA        :         -0.076322357 Ha             -2.076837012 eV
  ------------------------------------ 
  End decomposition of the XC Energy 
  ------------------------------------ 
---------------------------------------------
---------------------------------------------
 | MP2 calculation starts ...
---------------------------------------------

  | Note : Resolution of identity applied 
  | Note : Non spin-polarized system 
---------------------------------------------
  | Homo level                                        1
  | Lumo level                                        2
  | Total Number of states                           62
  | Number of k-points                                1
  | Homo-Lumo Gap                            0.24992379 Ha          6.80077236 eV
---------------------------------------------
  The ovlp_3KS matrix takes another      0 MiB x      4 procs =       0.000 GiB.


---------------------------------------------
| Sum of correlation terms 
---------------------------------------------
  | Pair state     1                    :         -2.06702220 eV         -2.06702220 eV

---------------------------------------------
| Correlation energy spectrum 
---------------------------------------------
  |     2    :         -0.10010061        -0.05491045
  |     3    :          0.19447247        -0.00113069
  |     4    :          0.20471785        -0.00525174
  |     5    :          0.34717906        -0.00127146
  |     6    :          0.34717906        -0.00127146
  |     7    :          0.35203076        -0.00180697
  |     8    :          0.44752755        -0.00064430
  |     9    :          0.44752755        -0.00064430
  |    10    :          0.63908104        -0.00060018
  |    11    :          0.93489185        -0.00121640
  |    12    :          1.02067827        -0.00199005
  |    13    :          1.10502974        -0.00016940
  |    14    :          1.10502974        -0.00016940
  |    15    :          1.18278606        -0.00027856
  |    16    :          1.18302494        -0.00010438
  |    17    :          1.18302495        -0.00010438
  |    18    :          1.24497851        -0.00008705
  |    19    :          1.24497851        -0.00008705
  |    20    :          1.38456291        -0.00013476
  |    21    :          1.38456291        -0.00013476
  |    22    :          1.59863480        -0.00030527
  |    23    :          1.80347720        -0.00044528
  |    24    :          1.80347720        -0.00044528
  |    25    :          1.91821311        -0.00042189
  |    26    :          1.93135427        -0.00035149
  |    27    :          1.93135427        -0.00035149
  |    28    :          2.38314216        -0.00020548
  |    29    :          3.35909422        -0.00002849
  |    30    :          3.35909422        -0.00002849
  |    31    :          3.37853837        -0.00003137
  |    32    :          3.42623039        -0.00002308
  |    33    :          3.42623039        -0.00002308
  |    34    :          3.47741063        -0.00001903
  |    35    :          3.47741063        -0.00001903
  |    36    :          3.49370479        -0.00001861
  |    37    :          3.49370479        -0.00001861
  |    38    :          3.55287604        -0.00002063
  |    39    :          3.55287605        -0.00002063
  |    40    :          3.69510561        -0.00002369
  |    41    :          3.69510561        -0.00002369
  |    42    :          3.78042364        -0.00010092
  |    43    :          3.86224367        -0.00023820
  |    44    :          4.03116695        -0.00018779
  |    45    :          5.20894094        -0.00003777
  |    46    :          5.20894094        -0.00003777
  |    47    :          5.27609542        -0.00003535
  |    48    :          5.27609543        -0.00003535
  |    49    :          5.39048338        -0.00003400
  |    50    :          5.39048339        -0.00003400
  |    51    :          5.41193255        -0.00003799
  |    52    :          5.69206253        -0.00003266
  |    53    :          5.69206253        -0.00003266
  |    54    :          6.30626420        -0.00003317
  |    55    :          8.49039172        -0.00004349
  |    56    :          8.49039172        -0.00004349
  |    57    :          8.75700450        -0.00003987
  |    58    :          8.78061682        -0.00003952
  |    59    :          8.78061682        -0.00003952
  |    60    :          9.78059324        -0.00002938
  |    61    :         21.88802806        -0.00000842
  |    62    :         22.34224433        -0.00000802
---------------------------------------------
 
 
 
          ---------------------------------------------
          | MP2 calculation comes to finish ...  
 
          ---------------------------------------------
          | Total time for calculating MP2 correction              :        0.000 s

          ---------------------------------------------

---------------------------------------------
  | HF Energy                      :         -0.86290857 Ha        -23.48093689 eV
  | MP2 correction                 :         -0.07596167 Ha         -2.06702220 eV
---------------------------------------------
  | Total Energy + MP2 correction  :         -0.93887024 Ha        -25.54795909 eV
---------------------------------------------

------------------------------------------------------------------------------
  Final output of selected total energy values:

  The following output summarizes some interesting total energy values
  at the end of a run (AFTER all relaxation, molecular dynamics, etc.).

  | Total energy of the DFT / Hartree-Fock s.c.f. calculation      :            -23.480936894 eV
  | Final zero-broadening corrected energy (caution - metals only) :            -23.480936894 eV
  | Total energy after the post-s.c.f. correlation calculation     :            -25.547959091 eV
  | For reference only, the value of 1 Hartree used in FHI-aims is :             27.211384500 eV

  Before relying on these values, please be sure to understand exactly which
  total energy value is referred to by a given number. Different objects may
  all carry the same name 'total energy'. Definitions:

  Total energy of the DFT / Hartree-Fock s.c.f. calculation:
  | Note that this energy does not include ANY quantities calculated after the
  | s.c.f. cycle, in particular not ANY RPA, MP2, etc. many-body perturbation terms.

  Final zero-broadening corrected energy:
  | For metallic systems only, a broadening of the occupation numbers at the Fermi
  | level can be extrapolated back to zero broadening by an electron-gas inspired
  | formula. For all systems that are not real metals, this value can be
  | meaningless and should be avoided.

  Total energy of the post-s.c.f. correlation calculation        :
  | The actual meaning of this energy depends on the setting for the 'total_energy_method'
  | keyword (MP2, RPA, rPT2, etc). If not sure, compare to the results listed above.

------------------------------------------------------------------------------

  Methods described in the following list of references were used in this FHI-aims run.
  If you publish the results, please make sure to cite these reference if they apply.
  FHI-aims is an academic code, and for our developers (often, Ph.D. students
  and postdocs), scientific credit in the community is essential.
  Thank you for helping us!

  For any use of FHI-aims, please cite:

    Volker Blum, Ralf Gehrke, Felix Hanke, Paula Havu, Ville Havu,
    Xinguo Ren, Karsten Reuter, and Matthias Scheffler,
    "Ab initio molecular simulations with numeric atom-centered orbitals"
    Computer Physics Communications 180, 2175-2196 (2009).
    http://dx.doi.org/10.1016/j.cpc.2009.06.022

  For Hartree-Fock, hybrid functionals, or many-body perturbation theory used in your run, please cite:

    Xinguo Ren, Patrick Rinke, Volker Blum, Juergen Wieferink, Alex Tkatchenko,
    Andrea Sanfilippo, Karsten Reuter, and Matthias Scheffler,
    "Resolution-of-identity approach to Hartree-Fock, hybrid density functionals,
     RPA, MP2, and GW with numeric atom-centered orbital basis functions"
    New Journal of Physics 14, 053020 (2012).
    http://dx.doi.org/10.1088/1367-2630/14/5/053020

  For the NAO-VCC-nZ basis sets used in this calculation, please cite:

    Igor Ying Zhang, Xinguo Ren, Patrick Rinke, Volker Blum, and Matthias Scheffler,
    "Numeric atom-centered-orbital basis sets with valence-correlation consistency from H to Ar"
    New Journal of Physics 15, 123033 (2013).
    http://dx.doi.org/10.1088/1367-2630/15/12/123033

  For the real-space grid partitioning and parallelization used in this calculation, please cite:

    Ville Havu, Volker Blum, Paula Havu, and Matthias Scheffler,
    "Efficient O(N) integration for all-electron electronic
    structure calculation using numerically tabulated basis functions"
    Journal of Computational Physics 228, 8367-8379 (2009).
    http://dx.doi.org/10.1016/j.jcp.2009.08.008

  Of course, there are many other important community references, e.g., those cited in the
  above references. Our list is limited to references that describe implementations in the FHI-aims
  code. The reason is purely practical (length of this list) - please credit others as well.

------------------------------------------------------------
          Leaving FHI-aims.
          Date     :  20140812, Time     :  112119.335

          Computational steps:
          | Number of self-consistency cycles          :            8

          Detailed time accounting                     :  max(cpu_time)    wall_clock(cpu1)
          | Total time                                 :       30.802 s          30.837 s
          | Preparation time                           :        0.224 s           0.240 s
          | Grid partitioning                          :        0.328 s           0.329 s
          | Preloading free-atom quantities on grid    :        0.068 s           0.066 s
          | Free-atom superposition energy             :        0.032 s           0.035 s
          | Total time for integrations                :        2.836 s           2.826 s
          | Product basis setup: Total time            :        0.000 s           0.000 s
          | Product basis: | 3-center integrations     :       22.797 s          22.817 s
          | Product basis: | 2-center integrations     :        0.252 s           0.251 s
          | Product basis: | 2-center linear algebra   :        0.084 s           0.083 s
          | Product basis: | 3-center x 2-center       :        0.024 s           0.025 s
          | Total time evaluating exchange matrix      :        0.096 s           0.096 s
          | Transforming ovlp_3fn to ovlp_3KS          :        0.012 s           0.011 s
          | Total time for solution of K.-S. equations :        0.024 s           0.018 s
          | Total time for density update              :        1.116 s           1.102 s
          | Total time for mixing                      :        0.120 s           0.116 s
          | Total time for Hartree multipole update    :        0.512 s           0.510 s
          | Total time for Hartree multipole sum       :        2.060 s           2.052 s
          | Total time for total energy evaluation     :        0.004 s           0.002 s

          Have a nice day.
------------------------------------------------------------
