  MPI-parallelism will be employed.
------------------------------------------------------------
          Invoking FHI-aims ...
          Version 072414
          Compiled on 2014/08/06 at 00:00:04 on host theobook58.

          When using FHI-aims, please cite the following reference:

          Volker Blum, Ralf Gehrke, Felix Hanke, Paula Havu,
          Ville Havu, Xinguo Ren, Karsten Reuter, and Matthias Scheffler,
          'Ab Initio Molecular Simulations with Numeric Atom-Centered Orbitals: FHI-aims',
          Computer Physics Communications 180, 2175-2196 (2009)

          For any questions about FHI-aims, please visit the aimsclub website
          with its forums and wiki. Contributions to both the forums and the
          wiki are warmly encouraged - they are for you, and everyone is welcome there.

------------------------------------------------------------

  Date     :  20140812, Time     :  111907.625
  Time zero on CPU 1             :   0.200000000000000E-01  s.
  Internal wall clock time zero  :           177074347.625  s.

  Using        4 parallel tasks.
  Task        0 on host theobook58 reporting.
  Task        1 on host theobook58 reporting.
  Task        2 on host theobook58 reporting.
  Task        3 on host theobook58 reporting.

  Performing system and environment tests:
  | Environment variable OMP_NUM_THREADS correctly set to 1.
  | Stacksize not measured: no C compiler
  | Checking for scalapack...
  | No scalapack compiled in.

  Obtaining array dimensions for all initial allocations:
  
  -----------------------------------------------------------------------
  Parsing control.in (first pass over file, find array dimensions only).
  The contents of control.in will be repeated verbatim below
  unless switched off by setting 'verbatim_writeout .false.' .
  in the first line of control.in .
  -----------------------------------------------------------------------
  
  xc                      hf
  total_energy_method     mp2
  relativistic            none
  occupation_type         integer 0.0001
  mixer                   pulay
  n_max_pulay             10
  charge_mix_param        0.6
  sc_iter_limit           600
  sc_accuracy_rho         1E-6
  sc_accuracy_eev         1E-4
  sc_accuracy_etot        1E-6
  override_illconditioning .true.
  charge                  0
  ################################################################################
  #
  #  FHI-aims code project
  # Igor Ying Zhang and Xinguo Ren, Fritz Haber Institute Berlin, 2012
  #
  #  Suggested "NAO-VCC-4Z" defaults for H atom (to be pasted into control.in file)
  #
  #  Please cite:
  #
  #  Igor Ying Zhang, Xinguo Ren, Patrick Rinke, Volker Blum, and Matthias Scheffler,
  #  "Numeric atom-centered-orbital basis sets with valence-correlation consistency from H to Ar"
  #  New Journal of Physics 15, 123033 (2013).
  #  http://dx.doi.org/10.1088/1367-2630/15/12/123033
  #
  ################################################################################
    species        H
  #     set basis set reference for FHI-aims output
      cite_reference NAO-VCC-2013
  #     global species definitions
      nucleus             1
      mass                1.00794
  #
      l_hartree           6
  #
      cut_pot             4.0  2.0  1.0
      basis_dep_cutoff    0e-4
  #
      radial_base         24 7.0
  radial_multiplier               6
      angular_grids       specified
        division   0.1930   50
        division   0.3175  110
        division   0.4293  194
        division   0.5066  302
        division   0.5626  434
        division   0.5922  590
  #      division   0.6227  974
  #      division   0.6868 1202
        outer_grid  770
  #      outer_grid  434
  ################################################################################
  #
  #  Definition of "minimal" basis
  #
  ################################################################################
  #     valence basis states
      valence      1  s   1.
  #     ion occupancy
      ion_occ      1  s   0.5
  ################################################################################
  
  
   basis_acc              1e-04
  #============================================
  # Optimization in      H for       NAO-VCC-4Z
  #============================================
  # (sp) correlation set
   hydro     1     s      1.15655525
   hydro     1     s      1.68684502
   hydro     1     s      2.46027686
   hydro     2     p      2.92145897
   hydro     2     p      4.14501835
   hydro     2     p      5.88102632
  # polarization set
   hydro     3     d      6.41446874
   hydro     3     d      7.67536483
   hydro     4     f     10.80870049
  # (sp) enhanced minimal set
   hydro     1     s      3.58833335
  
  -----------------------------------------------------------------------
  Completed first pass over input file control.in .
  -----------------------------------------------------------------------
  
  
  -----------------------------------------------------------------------
  Parsing geometry.in (first pass over file, find array dimensions only).
  The contents of geometry.in will be repeated verbatim below
  unless switched off by setting 'verbatim_writeout .false.' .
  in the first line of geometry.in .
  -----------------------------------------------------------------------
  
  atom             0.0             0.0             0.0    H
  atom             0.0             0.0             2.0    H
  
  -----------------------------------------------------------------------
  Completed first pass over input file geometry.in .
  -----------------------------------------------------------------------
  

  Basic array size parameters:
  | Number of species                 :        1
  | Number of atoms                   :        2
  | Max. basis fn. angular momentum   :        3
  | Max. atomic/ionic basis occupied n:        1
  | Max. number of basis fn. types    :        2
  | Max. radial fns per species/type  :       10
  | Max. logarithmic grid size        :     1131
  | Max. radial integration grid size :      149
  | Max. angular integration grid size:      770
  | Max. angular grid division number :        8
  | Radial grid for Hartree potential :     1131
  | Number of spin channels           :        1

------------------------------------------------------------
          Reading file control.in.
------------------------------------------------------------
 
  Hartree-Fock calculation starts ...... 
  Attention: this version of Hartree-Fock employs an auxiliary basis. 
 
  MP2 correlation energy calculation will be started after the DFT/HF calculation.
  Non-relativistic treatment of kinetic energy.
  Occupation type: Integer occupation.
  Using pulay charge density mixing.
  Pulay mixing - number of memorized iterations:   10
  Charge density mixing - mixing parameter:     0.6000
  Maximum number of s.-c. iterations  :   600
  Convergence accuracy of self-consistent charge density: 0.1000E-05
  Convergence accuracy of sum of eigenvalues: 0.1000E-03
  Convergence accuracy of total energy: 0.1000E-05
  override_illconditioning: Explicitly overriding any built-in checks for an ill-conditioned overlap matrix.
  *** WARNING: If you use this flag, you should really know what you are doing.
  *** DO NOT keep this flag set by default in all your control.in files.
  Charge =   0.000000E+00: Neutral system requested explicitly.
 
  Reading configuration options for species H                   .
  | Found nuclear charge :   1.0000
  | Found atomic mass :    1.00794000000000      amu
  | Found l_max for Hartree potential  :   6
  | Found cutoff potl. onset [A], width [A], scale factor :    4.00000    2.00000    1.00000
  | Threshold for basis-dependent cutoff potential is   0.000000E+00
  | Found data for basic radial integration grid :    24 points, outermost radius =    7.000 A
  | Found multiplier for basic radial grid :   6
  | Found angular grid specification: user-specified.
  | Specified grid contains     7 separate shells.
  | Check grid settings after all constraints further below.
  | Found free-atom valence shell :  1 s   1.000
  | No ionic wave fns used. Skipping ion_occ.
  | Found basis singularity cutoff : 0.1000E-03
  | Found hydrogenic basis function :  1 s   1.157
  | Found hydrogenic basis function :  1 s   1.687
  | Found hydrogenic basis function :  1 s   2.460
  | Found hydrogenic basis function :  2 p   2.921
  | Found hydrogenic basis function :  2 p   4.145
  | Found hydrogenic basis function :  2 p   5.881
  | Found hydrogenic basis function :  3 d   6.414
  | Found hydrogenic basis function :  3 d   7.675
  | Found hydrogenic basis function :  4 f  10.809
  | Found hydrogenic basis function :  1 s   3.588
  Species H                   : Missing cutoff potential type.
  Defaulting to exp(1/x)/(1-x)^2 type cutoff potential.
  Species H : No 'logarithmic' tag. Using default grid for free atom:
  | Default logarithmic grid data [bohr] : 0.1000E-03 0.1000E+03 0.1012E+01
  Species H                   : Using default innermost maximum threshold i_radial=  2 for radial functions.
  Species H                   : Default cutoff onset for free atom density etc. is infinite
  since the product basis is used (hybrid functionals, Hartree-Fock, GW etc.).
  Species H                   : Basic radial grid will be enhanced according to radial_multiplier =   6, to contain   149 grid points.
 
  Finished reading input file 'control.in'. Consistency checks are next.
 
  Species H: Using default value for prodbas_acc =   1.000000E-02.
  Species H: Using default value max_l_prodbas =     5.
  Target number of points in a grid batch is not set. Defaulting to  100
  Method for grid partitioning is not set. Defaulting to parallel hash+maxmin partitioning.
  Batch size limit is not set. Defaulting to    200
  By default, will store active basis functions for each batch.
  If in need of memory, prune_basis_once .false. can be used to disable this option.
  communication_type for Hartree potential was not specified.
  Defaulting to calc_hartree .
  Pulay mixer: Number of initial linear mixing iterations not set.
  Defaulting to    0 iterations.
  Work space size for distributed Hartree potential not set.
  Defaulting to   0.200000E+03 MB.
  Algorithm-dependent basis array size parameters:
  | n_max_pulay                         :       10
  Calculation of forces was not defined in control.in. No forces will be calculated.
  Geometry relaxation not requested: no relaxation will be performed.
  No accuracy limit for integral partition fn. given. Defaulting to 0.1000E-14.
  No threshold value for u(r) in integrations given. Defaulting to 0.1000E-05.
  No accuracy for occupation numbers given. Defaulting to 0.1000E-07.
  No threshold value for occupation numbers given. Defaulting to 0.0000E+00.
  No accuracy for fermi level given. Defaulting to 0.1000E-19.
  Maximum # of iterations to find E_F not set. Defaulting to  200.
  Preferred method for the eigenvalue solver ('KS_method') not specified in 'control.in'.
  Calling blacs routine to test compilation state
  The best choice would be 'elpa', but your version of FHI-aims is compiled without scalapack support.
  Defaulting to 'lapack_fast' instead (serial solution, time will not improve with more CPUs).
  Will not use alltoall communication since running on < 1024 CPUs.
  Threshold for basis singularities not set.
  Default threshold for basis singularities: 0.1000E-04
  partition_type (choice of integration weights) for integrals was not specified.
  | Using a version of the partition function of Stratmann and coworkers ('stratmann_smoother').
  | At each grid point, the set of atoms used to build the partition table is smoothly restricted to
  | only those atoms whose free-atom density would be non-zero at that grid point.
  Partitioning for Hartree potential was not defined. Using partition_type for integrals.
  | Adjusted default value of keyword multip_moments_threshold to:       0.10000000E-11
  | This value may affect high angular momentum components of the Hartree potential in periodic systems.
  Spin handling was not defined in control.in. Defaulting to unpolarized case.
  Threshold for auxiliary basis singularities not set.
  Default threshold for auxiliary basis singularities: 0.1000E-04
  No q(lm)/r^(l+1) cutoff set for long-range Hartree potential.
  | Using default value of  0.100000E-09 .
  | Verify using the multipole_threshold keyword.
  Defaulting to new monopole extrapolation.
  Density update method: automatic selection selected.
  Default to 1D ("use_logsbt") integrations for auxiliary 2-center integrals.
  Default onset of logarithmic r-grid for SBT is-38.000000000000
  Default onset of logarithmic k-grid for SBT is-25.000000000000
  Default range of logarithmic r- and k-grid for SBT is 45.000000000000
  Default number of logarithmic r- and k-grid for SBT is  4096
------------------------------------------------------------


------------------------------------------------------------
          Reading geometry description geometry.in.
------------------------------------------------------------
  Input structure read successfully.
  The structure contains        2 atoms,  and a total of          2.000 electrons.

  Input geometry:
  | No unit cell requested.
  | Atomic structure:
  |       Atom                x [A]            y [A]            z [A]
  |    1: Species H              0.000000         0.000000         0.000000
  |    2: Species H              0.000000         0.000000         2.000000
  |

  | The smallest distance between any two atoms is         2.00000000 AA.
  |
  | The first atom of this pair is atom number                      1 .
  | The second atom of this pair is atom number                     2 .

  Number of empty states per atom not set in control.in .
  | Since you are using a method that relies on the unoccupied spectrum
  | (MP2,GW,RPA et al.), will use the full Hamiltonian size (see below)
  | as the max. possible number of states (occupied plus empty).

  Structure-dependent array size parameters: 
  | Maximum number of distinct radial functions  :       11
  | Maximum number of basis functions            :       62
  | Number of Kohn-Sham states (occupied + empty):       62
------------------------------------------------------------

------------------------------------------------------------
          Preparing all fixed parts of the calculation.
------------------------------------------------------------
  Determining machine precision:
    2.225073858507201E-308
  Setting up grids for atomic and cluster calculations.

  Creating wave function, potential, and density for free atoms.

  Species: H

  List of occupied orbitals and eigenvalues:
    n    l              occ      energy [Ha]    energy [eV]
    1    0           1.0000        -0.233457        -6.3527

  Creating fixed part of basis set: Ionic, confined, hydrogenic.
 
  H                    hydrogenic:
 
  List of hydrogenic basis orbitals: 
    n    l      effective z      eigenvalue [eV]  inner max. [A]     outer max. [A]     outer radius [A]   
    1    0         1.156555       -18.1992           0.460320           0.460320           5.243229
    1    0         1.686845       -38.7143           0.315118           0.315118           4.932336
    1    0         2.460277       -82.3547           0.215718           0.215718           3.815562
    2    1         2.921459       -29.0309           0.723605           0.723605           5.243229
    2    1         4.145018       -58.4405           0.507614           0.507614           4.813203
    2    1         5.881026      -117.6432           0.360475           0.360475           3.678162
    3    2         6.414469       -62.2013           0.741515           0.741515           4.993004
    3    2         7.675365       -89.0587           0.617279           0.617279           4.583499
    4    3        10.808700       -99.3454           0.778676           0.778676           4.696947
    1    0         3.588333      -175.1887           0.147673           0.147673           2.644120
 

  Adding cutoff potential to free-atom effective potential.
  Creating atomic-like basis functions for current effective potential.

  Species H                   :

  List of atomic basis orbitals and eigenvalues:
    n    l      energy [Ha]    energy [eV]    outer radius [A]
    1    0        -0.233418        -6.3516       5.373006

  Assembling full basis from fixed parts.
  | Species H :   atomic orbital   1 s accepted.
  | Species H :    hydro orbital   1 s accepted.
  | Species H :    hydro orbital   1 s accepted.
  | Species H :    hydro orbital   1 s accepted.
  | Species H :    hydro orbital   1 s accepted.
  | Species H :    hydro orbital   2 p accepted.
  | Species H :    hydro orbital   2 p accepted.
  | Species H :    hydro orbital   2 p accepted.
  | Species H :    hydro orbital   3 d accepted.
  | Species H :    hydro orbital   3 d accepted.
  | Species H :    hydro orbital   4 f accepted.
 
  Basis size parameters after reduction:
  | Total number of radial functions:       11
  | Total number of basis functions :       62
 
  Testing on-site integration grid accuracy.
  |  Species  Function  <phi|h_atom|phi> (log., in eV)  <phi|h_atom|phi> (rad., in eV)
           1        1                 -6.3519216712                 -6.3519215989
           1        2                  8.4716038567                  8.4716058028
           1        3                 58.3749927434                 58.3750109815
           1        4                178.9024737125                178.9026031671
           1        5                456.3642310330                456.3649721232
           1        6                 16.2415699263                 16.2415699338
           1        7                 68.2932618880                 68.2932619123
           1        8                188.3801588017                188.3801587562
           1        9                 49.9849006789                 49.9849006869
           1       10                114.3821731125                114.3821730675
           1       11                 88.0899419283                 88.0899419237

  Preparing densities etc. for the partition functions (integrals / Hartree potential).

  Preparations completed.
  max(cpu_time)          :      0.228 s.
  Wall clock time (cpu1) :      0.260 s.
------------------------------------------------------------

------------------------------------------------------------
          Begin self-consistency loop: Initialization.

          Date     :  20140812, Time     :  111907.891
------------------------------------------------------------

  Initializing index lists of integration centers etc. from given atomic structure:
  | Number of centers in hartree potential         :         2
  | Number of centers in hartree multipole         :         2
  | Number of centers in electron density summation:         2
  | Number of centers in basis integrals           :         2
  | Number of centers in integrals                 :         2
  Partitioning the integration grid into batches with parallel hashing+maxmin method.
  | Number of batches:     1939
  | Maximal batch size:     157
  | Minimal batch size:      56
  | Average batch size:      74.473
  | Standard deviation of batch sizes:      16.802

  Integration load balanced across     4 MPI tasks.
  Work distribution over tasks is as follows:
  Task     0 has      36151 integration points.
  Task     1 has      36091 integration points.
  Task     2 has      36089 integration points.
  Task     3 has      36073 integration points.
  Initializing partition tables, free-atom densities, potentials, etc. across the integration grid (initialize_grid_storage).
  | Original list of interatomic distances with           2 x          2 entries is created.
  | Net number of integration points:   144404
  | of which are non-zero points    :   137538
  Obtaining max. number of non-zero basis functions in each batch (get_n_compute_maxes).
  | Maximal number of non-zero basis functions:       62 in task     0
  | Maximal number of non-zero basis functions:       62 in task     1
  | Maximal number of non-zero basis functions:       62 in task     2
  | Maximal number of non-zero basis functions:       62 in task     3
  Selecting the method for density update.
  Loop over occupied states selected for charge density update.
  Integrating Hamiltonian matrix: batch-based integration.
  Time summed over all CPUs for integration: real work        1.171 s, elapsed        1.184 s
  Integrating overlap matrix.
  Time summed over all CPUs for integration: real work        0.735 s, elapsed        0.744 s

  Updating Kohn-Sham eigenvalues, eigenvectors, occupation numbers, and Fermi level.
  Solving generalized eigenproblem
  Updating Kohn-Sham eigenvalues and eigenfunctions.
  Transforming overlap matrix and checking for singularities.
  Overlap matrix is nonsingular:
  | Lowest eigenvalue:  0.126240E-01
  Solving real generalised eigenvalue problem by standard LAPACK (fast)
  Determining occupation numbers for Kohn-Sham eigenstates.
  | Chemical potential (Fermi level) in eV                 : -.63563782E+01
  | Error in electron count due to remaining E_F inaccuracy: 0.00000000E+00
  | Maximum occupation number of highest empty state:  0.00E+00

  Writing Kohn-Sham eigenvalues.

  State    Occupation    Eigenvalue [Ha]    Eigenvalue [eV]
      1       2.00000          -0.281776           -7.66750
      2       0.00000          -0.185410           -5.04525
      3       0.00000           0.089389            2.43241
      4       0.00000           0.117206            3.18933
      5       0.00000           0.179239            4.87735
      6       0.00000           0.179239            4.87735
      7       0.00000           0.251057            6.83161
      8       0.00000           0.331877            9.03084
      9       0.00000           0.331877            9.03084
     10       0.00000           0.574685           15.63799
     11       0.00000           0.775225           21.09493
     12       0.00000           0.854485           23.25173
     13       0.00000           0.909072           24.73711
     14       0.00000           0.909072           24.73711
     15       0.00000           0.936140           25.47365
     16       0.00000           0.936140           25.47365
     17       0.00000           1.036965           28.21726
     18       0.00000           1.112400           30.26995
     19       0.00000           1.112400           30.26995
     20       0.00000           1.383358           37.64308
     21       0.00000           1.383358           37.64308
     22       0.00000           1.549534           42.16497
     23       0.00000           1.549534           42.16497
     24       0.00000           1.747021           47.53885
     25       0.00000           1.761279           47.92685
     26       0.00000           1.761279           47.92685
     27       0.00000           1.827790           49.73670
     28       0.00000           2.455813           66.82607
     29       0.00000           3.023011           82.26032
     30       0.00000           3.023011           82.26032
     31       0.00000           3.032381           82.51528
     32       0.00000           3.032381           82.51528
     33       0.00000           3.097050           84.27502
     34       0.00000           3.182774           86.60769
     35       0.00000           3.182774           86.60769
     36       0.00000           3.286843           89.43955
     37       0.00000           3.286843           89.43955
     38       0.00000           3.528131           96.00533
     39       0.00000           3.528131           96.00533
     40       0.00000           3.686691          100.31997
     41       0.00000           3.692718          100.48398
     42       0.00000           3.951752          107.53265
     43       0.00000           3.951752          107.53265
     44       0.00000           4.229833          115.09961
     45       0.00000           4.919628          133.86988
     46       0.00000           4.919628          133.86988
     47       0.00000           5.013787          136.43210
     48       0.00000           5.013787          136.43210
     49       0.00000           5.191331          141.26330
     50       0.00000           5.191331          141.26330
     51       0.00000           5.649817          153.73935
     52       0.00000           5.904750          160.67642
     53       0.00000           5.904750          160.67642
     54       0.00000           7.455915          202.88578
     55       0.00000           8.094674          220.26728
     56       0.00000           8.094674          220.26728
     57       0.00000           8.537949          232.32941
     58       0.00000           8.537949          232.32941
     59       0.00000           8.695495          236.61647
     60       0.00000           9.831796          267.53679
     61       0.00000          21.512552          585.38631
     62       0.00000          22.117744          601.85443

  Highest occupied state (VBM) at     -7.66750348 eV
  | Occupation number:      2.00000000

  Lowest unoccupied state (CBM) at    -5.04525287 eV
  | Occupation number:      0.00000000

  Overall HOMO-LUMO gap:      2.62225060 eV.
  Calculating total energy contributions from superposition of free atom densities.

  Total energy components:
  | Sum of eigenvalues            :          -0.56355115 Ha         -15.33500695 eV
  | XC energy correction          :          -0.47563929 Ha         -12.94280348 eV
  | XC potential correction       :           0.62000818 Ha          16.87128086 eV
  | Free-atom electrostatic energy:          -0.55865423 Ha         -15.20175496 eV
  | Hartree energy correction     :           0.00000000 Ha           0.00000000 eV
  | Entropy correction            :           0.00000000 Ha           0.00000000 eV
  | ---------------------------
  | Total energy                  :          -0.97783648 Ha         -26.60828453 eV
  | Total energy, T -> 0          :          -0.97783648 Ha         -26.60828453 eV  <-- do not rely on this value for anything but (periodic) metals
  | Electronic free energy        :          -0.97783648 Ha         -26.60828453 eV

  Derived energy quantities:
  | Kinetic energy                :           0.77751556 Ha          21.15727480 eV
  | Electrostatic energy          :          -1.27971276 Ha         -34.82275585 eV
  | Energy correction for multipole
  | error in Hartree potential    :           0.00000000 Ha           0.00000000 eV
  | Sum of eigenvalues per atom                           :          -7.66750348 eV
  | Total energy (T->0) per atom                          :         -13.30414227 eV  <-- do not rely on this value for anything but (periodic) metals
  | Electronic free energy per atom                       :         -13.30414227 eV
 
 --------------------------------------------
  Constructing auxiliary basis (full product) ...
 
  Product basis:
  | charge radius: extent of product basis function
  | field radius: extent of its Coulomb potential
  | Species   l  charge radius    field radius  multipol momen
  |    H      5     4.813203 A      4.813203 A  2.676041E-15 a.u.
  |    H      4     4.932336 A      4.932336 A  2.417679E-16 a.u.
  |    H      3     5.054418 A      5.054418 A  ************ a.u.
  |    H      4     5.054418 A      5.054418 A  ************ a.u.
  |    H      3     5.116587 A      5.116587 A  1.642688E-15 a.u.
  |    H      2     5.179521 A      5.179521 A  6.126280E-16 a.u.
  |    H      3     5.179521 A      5.179521 A  ************ a.u.
  |    H      2     5.243229 A      5.243229 A  1.485543E-16 a.u.
  |    H      2     5.243229 A      5.243229 A  1.683301E-16 a.u.
  |    H      2     5.243229 A      5.243229 A  ************ a.u.
  |    H      3     5.243229 A      5.243229 A  ************ a.u.
  |    H      1     5.307721 A      5.307721 A  2.416866E-16 a.u.
  |    H      1     5.307721 A      5.307721 A  1.291012E-16 a.u.
  |    H      2     5.307721 A      5.307721 A  7.871382E-16 a.u.
  |    H      0     5.373006 A      5.373006 A  9.519909E-17 a.u.
  |    H      1     5.373006 A      5.373006 A  2.334090E-16 a.u.
  |    H      1     5.373006 A      5.373006 A  ************ a.u.
  |    H      1     5.373006 A      5.373006 A  ************ a.u.
  |    H      1     5.373006 A      5.373006 A  1.823473E-16 a.u.
  |    H      0     5.373006 A      5.439094 A  ************ a.u.
  |    H      0     5.439094 A      5.439094 A  ************ a.u.
  |    H      0     5.439094 A      5.505995 A  9.305319E-17 a.u.
  |    H      0     5.439094 A      5.505995 A  4.082184E-17 a.u.
  |    H      0     5.439094 A      5.505995 A  3.169850E-16 a.u.
  |    H      0     5.439094 A      5.505995 A  2.711689E-16 a.u.
  |    H      5     4.872405 A  1.325110E+02 A           19.619780 a.u.
  |    H      4     5.054418 A  3.771796E+02 A           14.639479 a.u.
  |    H      3     5.243229 A  1.836978E+03 A           11.555842 a.u.
  |    H      2     5.307721 A  2.095310E+04 A            4.940052 a.u.
  |    H      1     5.373006 A  2.512347E+06 A            1.793689 a.u.
  |    H      0     5.439094 A  4.604132E+12 A            0.692368 a.u.

  | Shrink_full_auxil_basis : there are       31  radial auxiliary wave functions
                            accepted and      90 rejected.
  | Shrink_full_auxil_basis : there are totally     286 partial auxiliary wave functions.
 
  | Number of product basis functions per thread :    72
  | Minimal requirement for computer memories :           0.005 Gbs
 
  Basis pair condensation :      1953  -->       1953
 
 ----------------------------------------------------
  Integrating the 3-basis-function Coulomb matrix ...
  | i_atom:            1
  | i_atom:            2
  Integrating the Coulomb interaction matrix for auxiliary basis functions (by atoms)

  SBT integration errors (all should be 'small'):
  large logFT aliasing -> increase N/lnrange
  large SBT aliasing -> decrease lnk0 & increase lnk0+lnrange
  large SBT ringing -> decrease lnr0 & increase lnr0+lnrange
  |            El't  L: logFT-al.   small-k   large-k   small-r   large-r
  Atomic logSBT for 2-center Coulomb matrix    :  max(cpu_time)    wall_clock(cpu1)
  | Multiplication with kernel                 :        0.028 s           0.009 s
  | Main matrix multiplication                 :        0.064 s           0.048 s
  | Analytic angular integration               :        0.004 s           0.001 s
  | Kernel construction                        :        0.004 s           0.001 s
  | Overall 2-center overlap time              :        0.096 s           0.061 s

  Difference of Coulomb matrix to its transposed:  2.7756E-16
  Task     0: Eigenvalues of the Coulomb matrix range from    1.9999E+00 to    9.7949E-06.
  Task     0: Using      285   eigenvalues out of rank      286   Coulomb matrix (auxiliary basis).
  Task     0: Still using eigenvalue     1.4070E-03 while cutting     9.7949E-06 in Coulomb matrix.
 
  Multiplying V^-0.5 x ovlp_3fn (1d-scalapack)

  Initialize hartree_potential_storage
  Max. number of atoms included in rho_multipole:            2

  End scf initialization - timings             :  max(cpu_time)    wall_clock(cpu1)
  | Time for scf. initialization               :       25.330 s          25.364 s
  | Boundary condition initialization          :        0.000 s           0.000 s
  | Integration                                :        0.484 s           0.483 s
  | Solution of K.-S. eqns.                    :        0.008 s           0.004 s
  | Grid partitioning                          :        0.324 s           0.326 s
  | Preloading free-atom quantities on grid    :        0.068 s           0.068 s
  | Free-atom superposition energy             :        0.036 s           0.034 s
  | Total energy evaluation                    :        0.000 s           0.001 s
  | Product basis setup: Total time            :       24.346 s          24.371 s
  | Product basis: | 3-center integrations     :       23.869 s          23.912 s
  | Product basis: | 2-center integrations     :        0.252 s           0.251 s
  | Product basis: | 2-center linear algebra   :        0.080 s           0.078 s
  | Product basis: | 3-center x 2-center       :        0.028 s           0.025 s
------------------------------------------------------------

------------------------------------------------------------
          Begin self-consistency iteration #    1

  Date     :  20140812, Time     :  111933.256
------------------------------------------------------------
  Evaluating new KS density.
  Integration grid: deviation in total charge (<rho> - N_e) =  -1.110223E-15
  Pulay mixing of updated and previous charge densities.

  Evaluating partitioned Hartree potential by multipole expansion.
  | Analytical far-field extrapolation by fixed multipoles:
  | Hartree multipole sum: apparent total charge =  -0.102173E-06
  Summing up the Hartree potential.
  Time summed over all CPUs for potential: real work        1.001 s, elapsed        1.004 s
  | RMS charge density error from multipole expansion :   0.159170E-03

  Integrating Hamiltonian matrix: batch-based integration.
  Time summed over all CPUs for integration: real work        1.063 s, elapsed        1.083 s
  Evaluating the exchange matrix ... 

  Updating Kohn-Sham eigenvalues, eigenvectors, occupation numbers, and Fermi level.
  Solving generalized eigenproblem
  Updating Kohn-Sham eigenvalues and eigenfunctions.
  Solving real generalised eigenvalue problem by standard LAPACK (fast)
  Determining occupation numbers for Kohn-Sham eigenstates.
  | Chemical potential (Fermi level) in eV                 : -.58467768E+01
  | Error in electron count due to remaining E_F inaccuracy: 0.00000000E+00
  | Maximum occupation number of highest empty state:  0.00E+00

  Writing Kohn-Sham eigenvalues.

  State    Occupation    Eigenvalue [Ha]    Eigenvalue [eV]
      1       2.00000          -0.389631          -10.60241
      2       0.00000          -0.040099           -1.09114
      3       0.00000           0.182108            4.95542
      4       0.00000           0.218541            5.94680
      5       0.00000           0.335687            9.13451
      6       0.00000           0.335687            9.13451
      7       0.00000           0.428040           11.64756
      8       0.00000           0.503180           13.69222
      9       0.00000           0.503180           13.69222
     10       0.00000           0.758885           20.65031
     11       0.00000           0.994497           27.06163
     12       0.00000           1.070793           29.13775
     13       0.00000           1.118169           30.42694
     14       0.00000           1.118169           30.42694
     15       0.00000           1.139665           31.01186
     16       0.00000           1.139665           31.01186
     17       0.00000           1.267973           34.50331
     18       0.00000           1.322440           35.98543
     19       0.00000           1.322440           35.98543
     20       0.00000           1.621381           44.12002
     21       0.00000           1.621381           44.12002
     22       0.00000           1.824484           49.64673
     23       0.00000           1.824484           49.64673
     24       0.00000           2.029545           55.22674
     25       0.00000           2.029545           55.22674
     26       0.00000           2.034203           55.35348
     27       0.00000           2.100211           57.14964
     28       0.00000           2.719993           74.01478
     29       0.00000           3.292912           89.60470
     30       0.00000           3.292912           89.60470
     31       0.00000           3.307854           90.01128
     32       0.00000           3.307854           90.01128
     33       0.00000           3.400245           92.52537
     34       0.00000           3.453530           93.97533
     35       0.00000           3.453530           93.97533
     36       0.00000           3.560165           96.87701
     37       0.00000           3.560165           96.87701
     38       0.00000           3.812902          103.75434
     39       0.00000           3.812902          103.75434
     40       0.00000           4.046286          110.10505
     41       0.00000           4.048931          110.17701
     42       0.00000           4.259687          115.91197
     43       0.00000           4.259687          115.91197
     44       0.00000           4.559146          124.06067
     45       0.00000           5.267029          143.32314
     46       0.00000           5.267029          143.32314
     47       0.00000           5.364630          145.97901
     48       0.00000           5.364630          145.97901
     49       0.00000           5.539352          150.73344
     50       0.00000           5.539352          150.73344
     51       0.00000           6.017531          163.74534
     52       0.00000           6.259300          170.32422
     53       0.00000           6.259300          170.32422
     54       0.00000           7.838198          213.28823
     55       0.00000           8.521392          231.87887
     56       0.00000           8.521392          231.87887
     57       0.00000           8.965274          243.95753
     58       0.00000           8.965274          243.95753
     59       0.00000           9.121217          248.20095
     60       0.00000          10.256969          279.10632
     61       0.00000          22.027224          599.39127
     62       0.00000          22.632506          615.86183

  Highest occupied state (VBM) at    -10.60241009 eV
  | Occupation number:      2.00000000

  Lowest unoccupied state (CBM) at    -1.09114342 eV
  | Occupation number:      0.00000000

  Overall HOMO-LUMO gap:      9.51126668 eV.

  Total energy components:
  | Sum of eigenvalues            :          -0.77926282 Ha         -21.20482019 eV
  | XC energy correction          :           0.42420286 Ha          11.54314716 eV
  | XC potential correction       :           0.00000000 Ha           0.00000000 eV
  | Free-atom electrostatic energy:          -0.55865423 Ha         -15.20175496 eV
  | Hartree energy correction     :          -0.01376666 Ha          -0.37460981 eV
  | Entropy correction            :           0.00000000 Ha           0.00000000 eV
  | ---------------------------
  | Total energy                  :          -0.92748084 Ha         -25.23803780 eV
  | Total energy, T -> 0          :          -0.92748084 Ha         -25.23803780 eV  <-- do not rely on this value for anything but (periodic) metals
  | Electronic free energy        :          -0.92748084 Ha         -25.23803780 eV

  Derived energy quantities:
  | Kinetic energy                :           0.75507605 Ha          20.54666464 eV
  | Electrostatic energy          :          -1.25835403 Ha         -34.24155528 eV
  | Energy correction for multipole
  | error in Hartree potential    :          -0.00002211 Ha          -0.00060151 eV
  | Sum of eigenvalues per atom                           :         -10.60241009 eV
  | Total energy (T->0) per atom                          :         -12.61901890 eV  <-- do not rely on this value for anything but (periodic) metals
  | Electronic free energy per atom                       :         -12.61901890 eV

  Self-consistency convergence accuracy:
  | Change of charge density      : 0.3662E-01
  | Change of sum of eigenvalues  : -.5870E+01 eV
  | Change of total energy        : 0.1370E+01 eV

  End self-consistency iteration #     1       :  max(cpu_time)    wall_clock(cpu1)
  | Time for this iteration                    :        0.744 s           0.744 s
  | Charge density update                      :        0.136 s           0.137 s
  | Density mixing                             :        0.004 s           0.002 s
  | Hartree multipole update                   :        0.068 s           0.067 s
  | Hartree multipole summation                :        0.252 s           0.252 s
  | Integration                                :        0.272 s           0.271 s
  | Fock matrix evaluation                     :        0.012 s           0.012 s
  | Solution of K.-S. eqns.                    :        0.004 s           0.002 s
  | Total energy evaluation                    :        0.004 s           0.001 s
------------------------------------------------------------

------------------------------------------------------------
          Begin self-consistency iteration #    2

  Date     :  20140812, Time     :  111934.000
------------------------------------------------------------
  Evaluating new KS density.
  Integration grid: deviation in total charge (<rho> - N_e) =  -7.549517E-15
  Pulay mixing of updated and previous charge densities.

  Evaluating partitioned Hartree potential by multipole expansion.
  | Analytical far-field extrapolation by fixed multipoles:
  | Hartree multipole sum: apparent total charge =  -0.965213E-07
  Summing up the Hartree potential.
  Time summed over all CPUs for potential: real work        1.014 s, elapsed        1.034 s
  | RMS charge density error from multipole expansion :   0.291650E-03

  Integrating Hamiltonian matrix: batch-based integration.
  Time summed over all CPUs for integration: real work        1.074 s, elapsed        1.088 s
  Evaluating the exchange matrix ... 

  Updating Kohn-Sham eigenvalues, eigenvectors, occupation numbers, and Fermi level.
  Solving generalized eigenproblem
  Updating Kohn-Sham eigenvalues and eigenfunctions.
  Solving real generalised eigenvalue problem by standard LAPACK (fast)
  Determining occupation numbers for Kohn-Sham eigenstates.
  | Chemical potential (Fermi level) in eV                 : -.58424310E+01
  | Error in electron count due to remaining E_F inaccuracy: 0.00000000E+00
  | Maximum occupation number of highest empty state:  0.00E+00

  Highest occupied state (VBM) at    -10.55170812 eV
  | Occupation number:      2.00000000

  Lowest unoccupied state (CBM) at    -1.13315379 eV
  | Occupation number:      0.00000000

  Overall HOMO-LUMO gap:      9.41855433 eV.

  Total energy components:
  | Sum of eigenvalues            :          -0.77553629 Ha         -21.10341624 eV
  | XC energy correction          :           0.41836542 Ha          11.38430230 eV
  | XC potential correction       :           0.00000000 Ha           0.00000000 eV
  | Free-atom electrostatic energy:          -0.55865423 Ha         -15.20175496 eV
  | Hartree energy correction     :          -0.01169231 Ha          -0.31816401 eV
  | Entropy correction            :           0.00000000 Ha           0.00000000 eV
  | ---------------------------
  | Total energy                  :          -0.92751741 Ha         -25.23903292 eV
  | Total energy, T -> 0          :          -0.92751741 Ha         -25.23903292 eV  <-- do not rely on this value for anything but (periodic) metals
  | Electronic free energy        :          -0.92751741 Ha         -25.23903292 eV

  Derived energy quantities:
  | Kinetic energy                :           0.70338145 Ha          19.13998303 eV
  | Electrostatic energy          :          -1.21253344 Ha         -32.99471366 eV
  | Energy correction for multipole
  | error in Hartree potential    :          -0.00004479 Ha          -0.00121888 eV
  | Sum of eigenvalues per atom                           :         -10.55170812 eV
  | Total energy (T->0) per atom                          :         -12.61951646 eV  <-- do not rely on this value for anything but (periodic) metals
  | Electronic free energy per atom                       :         -12.61951646 eV

  Self-consistency convergence accuracy:
  | Change of charge density      : 0.3213E-01
  | Change of sum of eigenvalues  : 0.1014E+00 eV
  | Change of total energy        : -.9951E-03 eV

  End self-consistency iteration #     2       :  max(cpu_time)    wall_clock(cpu1)
  | Time for this iteration                    :        0.752 s           0.750 s
  | Charge density update                      :        0.136 s           0.136 s
  | Density mixing                             :        0.004 s           0.004 s
  | Hartree multipole update                   :        0.064 s           0.064 s
  | Hartree multipole summation                :        0.260 s           0.260 s
  | Integration                                :        0.272 s           0.272 s
  | Fock matrix evaluation                     :        0.012 s           0.012 s
  | Solution of K.-S. eqns.                    :        0.004 s           0.002 s
  | Total energy evaluation                    :        0.000 s           0.000 s
------------------------------------------------------------

------------------------------------------------------------
          Begin self-consistency iteration #    3

  Date     :  20140812, Time     :  111934.750
------------------------------------------------------------
  Evaluating new KS density.
  Integration grid: deviation in total charge (<rho> - N_e) =  -2.220446E-15
  Pulay mixing of updated and previous charge densities.

  Evaluating partitioned Hartree potential by multipole expansion.
  | Analytical far-field extrapolation by fixed multipoles:
  | Hartree multipole sum: apparent total charge =  -0.107212E-06
  Summing up the Hartree potential.
  Time summed over all CPUs for potential: real work        1.008 s, elapsed        1.013 s
  | RMS charge density error from multipole expansion :   0.347993E-03

  Integrating Hamiltonian matrix: batch-based integration.
  Time summed over all CPUs for integration: real work        1.079 s, elapsed        1.115 s
  Evaluating the exchange matrix ... 

  Updating Kohn-Sham eigenvalues, eigenvectors, occupation numbers, and Fermi level.
  Solving generalized eigenproblem
  Updating Kohn-Sham eigenvalues and eigenfunctions.
  Solving real generalised eigenvalue problem by standard LAPACK (fast)
  Determining occupation numbers for Kohn-Sham eigenstates.
  | Chemical potential (Fermi level) in eV                 : -.58733198E+01
  | Error in electron count due to remaining E_F inaccuracy: 0.00000000E+00
  | Maximum occupation number of highest empty state:  0.00E+00

  Highest occupied state (VBM) at    -10.56171837 eV
  | Occupation number:      2.00000000

  Lowest unoccupied state (CBM) at    -1.18492129 eV
  | Occupation number:      0.00000000

  Overall HOMO-LUMO gap:      9.37679707 eV.

  Total energy components:
  | Sum of eigenvalues            :          -0.77627203 Ha         -21.12343673 eV
  | XC energy correction          :           0.41554293 Ha          11.30749851 eV
  | XC potential correction       :           0.00000000 Ha           0.00000000 eV
  | Free-atom electrostatic energy:          -0.55865423 Ha         -15.20175496 eV
  | Hartree energy correction     :          -0.00730891 Ha          -0.19888564 eV
  | Entropy correction            :           0.00000000 Ha           0.00000000 eV
  | ---------------------------
  | Total energy                  :          -0.92669224 Ha         -25.21657883 eV
  | Total energy, T -> 0          :          -0.92669224 Ha         -25.21657883 eV  <-- do not rely on this value for anything but (periodic) metals
  | Electronic free energy        :          -0.92669224 Ha         -25.21657883 eV

  Derived energy quantities:
  | Kinetic energy                :           0.67942917 Ha          18.48820841 eV
  | Electrostatic energy          :          -1.19057848 Ha         -32.39728874 eV
  | Energy correction for multipole
  | error in Hartree potential    :          -0.00005368 Ha          -0.00146080 eV
  | Sum of eigenvalues per atom                           :         -10.56171837 eV
  | Total energy (T->0) per atom                          :         -12.60828942 eV  <-- do not rely on this value for anything but (periodic) metals
  | Electronic free energy per atom                       :         -12.60828942 eV

  Self-consistency convergence accuracy:
  | Change of charge density      : 0.1188E-01
  | Change of sum of eigenvalues  : -.2002E-01 eV
  | Change of total energy        : 0.2245E-01 eV

  End self-consistency iteration #     3       :  max(cpu_time)    wall_clock(cpu1)
  | Time for this iteration                    :        0.752 s           0.753 s
  | Charge density update                      :        0.136 s           0.134 s
  | Density mixing                             :        0.008 s           0.008 s
  | Hartree multipole update                   :        0.064 s           0.064 s
  | Hartree multipole summation                :        0.256 s           0.255 s
  | Integration                                :        0.280 s           0.279 s
  | Fock matrix evaluation                     :        0.012 s           0.012 s
  | Solution of K.-S. eqns.                    :        0.004 s           0.001 s
  | Total energy evaluation                    :        0.000 s           0.000 s
------------------------------------------------------------

------------------------------------------------------------
          Begin self-consistency iteration #    4

  Date     :  20140812, Time     :  111935.504
------------------------------------------------------------
  Evaluating new KS density.
  Integration grid: deviation in total charge (<rho> - N_e) =   8.881784E-16
  Pulay mixing of updated and previous charge densities.

  Evaluating partitioned Hartree potential by multipole expansion.
  | Analytical far-field extrapolation by fixed multipoles:
  | Hartree multipole sum: apparent total charge =  -0.111809E-06
  Summing up the Hartree potential.
  Time summed over all CPUs for potential: real work        1.001 s, elapsed        1.007 s
  | RMS charge density error from multipole expansion :   0.376901E-03

  Integrating Hamiltonian matrix: batch-based integration.
  Time summed over all CPUs for integration: real work        1.079 s, elapsed        1.110 s
  Evaluating the exchange matrix ... 

  Updating Kohn-Sham eigenvalues, eigenvectors, occupation numbers, and Fermi level.
  Solving generalized eigenproblem
  Updating Kohn-Sham eigenvalues and eigenfunctions.
  Solving real generalised eigenvalue problem by standard LAPACK (fast)
  Determining occupation numbers for Kohn-Sham eigenstates.
  | Chemical potential (Fermi level) in eV                 : -.59067376E+01
  | Error in electron count due to remaining E_F inaccuracy: 0.00000000E+00
  | Maximum occupation number of highest empty state:  0.00E+00

  Highest occupied state (VBM) at    -10.58358795 eV
  | Occupation number:      2.00000000

  Lowest unoccupied state (CBM) at    -1.22988735 eV
  | Occupation number:      0.00000000

  Overall HOMO-LUMO gap:      9.35370059 eV.

  Total energy components:
  | Sum of eigenvalues            :          -0.77787942 Ha         -21.16717589 eV
  | XC energy correction          :           0.41348065 Ha          11.25138106 eV
  | XC potential correction       :           0.00000000 Ha           0.00000000 eV
  | Free-atom electrostatic energy:          -0.55865423 Ha         -15.20175496 eV
  | Hartree energy correction     :          -0.00290493 Ha          -0.07904719 eV
  | Entropy correction            :           0.00000000 Ha           0.00000000 eV
  | ---------------------------
  | Total energy                  :          -0.92595792 Ha         -25.19659699 eV
  | Total energy, T -> 0          :          -0.92595792 Ha         -25.19659699 eV  <-- do not rely on this value for anything but (periodic) metals
  | Electronic free energy        :          -0.92595792 Ha         -25.19659699 eV

  Derived energy quantities:
  | Kinetic energy                :           0.66569648 Ha          18.11452297 eV
  | Electrostatic energy          :          -1.17817375 Ha         -32.05973890 eV
  | Energy correction for multipole
  | error in Hartree potential    :          -0.00005751 Ha          -0.00156488 eV
  | Sum of eigenvalues per atom                           :         -10.58358795 eV
  | Total energy (T->0) per atom                          :         -12.59829849 eV  <-- do not rely on this value for anything but (periodic) metals
  | Electronic free energy per atom                       :         -12.59829849 eV

  Self-consistency convergence accuracy:
  | Change of charge density      : 0.4066E-02
  | Change of sum of eigenvalues  : -.4374E-01 eV
  | Change of total energy        : 0.1998E-01 eV

  End self-consistency iteration #     4       :  max(cpu_time)    wall_clock(cpu1)
  | Time for this iteration                    :        0.764 s           0.761 s
  | Charge density update                      :        0.144 s           0.142 s
  | Density mixing                             :        0.012 s           0.011 s
  | Hartree multipole update                   :        0.064 s           0.063 s
  | Hartree multipole summation                :        0.256 s           0.253 s
  | Integration                                :        0.276 s           0.278 s
  | Fock matrix evaluation                     :        0.012 s           0.012 s
  | Solution of K.-S. eqns.                    :        0.004 s           0.001 s
  | Total energy evaluation                    :        0.000 s           0.001 s
------------------------------------------------------------

------------------------------------------------------------
          Begin self-consistency iteration #    5

  Date     :  20140812, Time     :  111936.265
------------------------------------------------------------
  Evaluating new KS density.
  Integration grid: deviation in total charge (<rho> - N_e) =  -2.886580E-15
  Pulay mixing of updated and previous charge densities.

  Evaluating partitioned Hartree potential by multipole expansion.
  | Analytical far-field extrapolation by fixed multipoles:
  | Hartree multipole sum: apparent total charge =  -0.111965E-06
  Summing up the Hartree potential.
  Time summed over all CPUs for potential: real work        1.000 s, elapsed        1.006 s
  | RMS charge density error from multipole expansion :   0.377897E-03

  Integrating Hamiltonian matrix: batch-based integration.
  Time summed over all CPUs for integration: real work        1.061 s, elapsed        1.079 s
  Evaluating the exchange matrix ... 

  Updating Kohn-Sham eigenvalues, eigenvectors, occupation numbers, and Fermi level.
  Solving generalized eigenproblem
  Updating Kohn-Sham eigenvalues and eigenfunctions.
  Solving real generalised eigenvalue problem by standard LAPACK (fast)
  Determining occupation numbers for Kohn-Sham eigenstates.
  | Chemical potential (Fermi level) in eV                 : -.59103410E+01
  | Error in electron count due to remaining E_F inaccuracy: 0.00000000E+00
  | Maximum occupation number of highest empty state:  0.00E+00

  Highest occupied state (VBM) at    -10.58622122 eV
  | Occupation number:      2.00000000

  Lowest unoccupied state (CBM) at    -1.23446080 eV
  | Occupation number:      0.00000000

  Overall HOMO-LUMO gap:      9.35176043 eV.

  Total energy components:
  | Sum of eigenvalues            :          -0.77807296 Ha         -21.17244245 eV
  | XC energy correction          :           0.41288245 Ha          11.23510307 eV
  | XC potential correction       :           0.00000000 Ha           0.00000000 eV
  | Free-atom electrostatic energy:          -0.55865423 Ha         -15.20175496 eV
  | Hartree energy correction     :          -0.00241961 Ha          -0.06584093 eV
  | Entropy correction            :           0.00000000 Ha           0.00000000 eV
  | ---------------------------
  | Total energy                  :          -0.92626435 Ha         -25.20493528 eV
  | Total energy, T -> 0          :          -0.92626435 Ha         -25.20493528 eV  <-- do not rely on this value for anything but (periodic) metals
  | Electronic free energy        :          -0.92626435 Ha         -25.20493528 eV

  Derived energy quantities:
  | Kinetic energy                :           0.66398784 Ha          18.06802854 eV
  | Electrostatic energy          :          -1.17736974 Ha         -32.03786075 eV
  | Energy correction for multipole
  | error in Hartree potential    :          -0.00005734 Ha          -0.00156035 eV
  | Sum of eigenvalues per atom                           :         -10.58622122 eV
  | Total energy (T->0) per atom                          :         -12.60246764 eV  <-- do not rely on this value for anything but (periodic) metals
  | Electronic free energy per atom                       :         -12.60246764 eV

  Self-consistency convergence accuracy:
  | Change of charge density      : 0.2195E-03
  | Change of sum of eigenvalues  : -.5267E-02 eV
  | Change of total energy        : -.8338E-02 eV

  End self-consistency iteration #     5       :  max(cpu_time)    wall_clock(cpu1)
  | Time for this iteration                    :        0.748 s           0.749 s
  | Charge density update                      :        0.136 s           0.134 s
  | Density mixing                             :        0.016 s           0.016 s
  | Hartree multipole update                   :        0.064 s           0.062 s
  | Hartree multipole summation                :        0.252 s           0.253 s
  | Integration                                :        0.272 s           0.270 s
  | Fock matrix evaluation                     :        0.012 s           0.012 s
  | Solution of K.-S. eqns.                    :        0.004 s           0.001 s
  | Total energy evaluation                    :        0.000 s           0.000 s
------------------------------------------------------------

------------------------------------------------------------
          Begin self-consistency iteration #    6

  Date     :  20140812, Time     :  111937.014
------------------------------------------------------------
  Evaluating new KS density.
  Integration grid: deviation in total charge (<rho> - N_e) =   3.996803E-15
  Pulay mixing of updated and previous charge densities.

  Evaluating partitioned Hartree potential by multipole expansion.
  | Analytical far-field extrapolation by fixed multipoles:
  | Hartree multipole sum: apparent total charge =  -0.111942E-06
  Summing up the Hartree potential.
  Time summed over all CPUs for potential: real work        1.011 s, elapsed        1.020 s
  | RMS charge density error from multipole expansion :   0.377796E-03

  Integrating Hamiltonian matrix: batch-based integration.
  Time summed over all CPUs for integration: real work        1.069 s, elapsed        1.080 s
  Evaluating the exchange matrix ... 

  Updating Kohn-Sham eigenvalues, eigenvectors, occupation numbers, and Fermi level.
  Solving generalized eigenproblem
  Updating Kohn-Sham eigenvalues and eigenfunctions.
  Solving real generalised eigenvalue problem by standard LAPACK (fast)
  Determining occupation numbers for Kohn-Sham eigenstates.
  | Chemical potential (Fermi level) in eV                 : -.59102701E+01
  | Error in electron count due to remaining E_F inaccuracy: 0.00000000E+00
  | Maximum occupation number of highest empty state:  0.00E+00

  Highest occupied state (VBM) at    -10.58621042 eV
  | Occupation number:      2.00000000

  Lowest unoccupied state (CBM) at    -1.23432975 eV
  | Occupation number:      0.00000000

  Overall HOMO-LUMO gap:      9.35188067 eV.

  Total energy components:
  | Sum of eigenvalues            :          -0.77807216 Ha         -21.17242084 eV
  | XC energy correction          :           0.41284579 Ha          11.23410565 eV
  | XC potential correction       :           0.00000000 Ha           0.00000000 eV
  | Free-atom electrostatic energy:          -0.55865423 Ha         -15.20175496 eV
  | Hartree energy correction     :          -0.00243143 Ha          -0.06616245 eV
  | Entropy correction            :           0.00000000 Ha           0.00000000 eV
  | ---------------------------
  | Total energy                  :          -0.92631202 Ha         -25.20623260 eV
  | Total energy, T -> 0          :          -0.92631202 Ha         -25.20623260 eV  <-- do not rely on this value for anything but (periodic) metals
  | Electronic free energy        :          -0.92631202 Ha         -25.20623260 eV

  Derived energy quantities:
  | Kinetic energy                :           0.66394922 Ha          18.06697758 eV
  | Electrostatic energy          :          -1.17741545 Ha         -32.03910454 eV
  | Energy correction for multipole
  | error in Hartree potential    :          -0.00005731 Ha          -0.00155960 eV
  | Sum of eigenvalues per atom                           :         -10.58621042 eV
  | Total energy (T->0) per atom                          :         -12.60311630 eV  <-- do not rely on this value for anything but (periodic) metals
  | Electronic free energy per atom                       :         -12.60311630 eV

  Self-consistency convergence accuracy:
  | Change of charge density      : 0.1807E-04
  | Change of sum of eigenvalues  : 0.2161E-04 eV
  | Change of total energy        : -.1297E-02 eV

  End self-consistency iteration #     6       :  max(cpu_time)    wall_clock(cpu1)
  | Time for this iteration                    :        0.760 s           0.760 s
  | Charge density update                      :        0.140 s           0.137 s
  | Density mixing                             :        0.020 s           0.019 s
  | Hartree multipole update                   :        0.064 s           0.064 s
  | Hartree multipole summation                :        0.256 s           0.256 s
  | Integration                                :        0.272 s           0.270 s
  | Fock matrix evaluation                     :        0.012 s           0.012 s
  | Solution of K.-S. eqns.                    :        0.004 s           0.001 s
  | Total energy evaluation                    :        0.000 s           0.000 s
------------------------------------------------------------

------------------------------------------------------------
          Begin self-consistency iteration #    7

  Date     :  20140812, Time     :  111937.774
------------------------------------------------------------
  Evaluating new KS density.
  Integration grid: deviation in total charge (<rho> - N_e) =  -4.218847E-15
  Pulay mixing of updated and previous charge densities.

  Evaluating partitioned Hartree potential by multipole expansion.
  | Analytical far-field extrapolation by fixed multipoles:
  | Hartree multipole sum: apparent total charge =  -0.111938E-06
  Summing up the Hartree potential.
  Time summed over all CPUs for potential: real work        1.013 s, elapsed        1.020 s
  | RMS charge density error from multipole expansion :   0.377791E-03

  Integrating Hamiltonian matrix: batch-based integration.
  Time summed over all CPUs for integration: real work        1.065 s, elapsed        1.084 s
  Evaluating the exchange matrix ... 

  Updating Kohn-Sham eigenvalues, eigenvectors, occupation numbers, and Fermi level.
  Solving generalized eigenproblem
  Updating Kohn-Sham eigenvalues and eigenfunctions.
  Solving real generalised eigenvalue problem by standard LAPACK (fast)
  Determining occupation numbers for Kohn-Sham eigenstates.
  | Chemical potential (Fermi level) in eV                 : -.59102745E+01
  | Error in electron count due to remaining E_F inaccuracy: 0.00000000E+00
  | Maximum occupation number of highest empty state:  0.00E+00

  Highest occupied state (VBM) at    -10.58622685 eV
  | Occupation number:      2.00000000

  Lowest unoccupied state (CBM) at    -1.23432214 eV
  | Occupation number:      0.00000000

  Overall HOMO-LUMO gap:      9.35190472 eV.

  Total energy components:
  | Sum of eigenvalues            :          -0.77807337 Ha         -21.17245371 eV
  | XC energy correction          :           0.41284757 Ha          11.23415404 eV
  | XC potential correction       :           0.00000000 Ha           0.00000000 eV
  | Free-atom electrostatic energy:          -0.55865423 Ha         -15.20175496 eV
  | Hartree energy correction     :          -0.00243150 Ha          -0.06616451 eV
  | Entropy correction            :           0.00000000 Ha           0.00000000 eV
  | ---------------------------
  | Total energy                  :          -0.92631153 Ha         -25.20621914 eV
  | Total energy, T -> 0          :          -0.92631153 Ha         -25.20621914 eV  <-- do not rely on this value for anything but (periodic) metals
  | Electronic free energy        :          -0.92631153 Ha         -25.20621914 eV

  Derived energy quantities:
  | Kinetic energy                :           0.66395643 Ha          18.06717371 eV
  | Electrostatic energy          :          -1.17742038 Ha         -32.03923880 eV
  | Energy correction for multipole
  | error in Hartree potential    :          -0.00005731 Ha          -0.00155944 eV
  | Sum of eigenvalues per atom                           :         -10.58622685 eV
  | Total energy (T->0) per atom                          :         -12.60310957 eV  <-- do not rely on this value for anything but (periodic) metals
  | Electronic free energy per atom                       :         -12.60310957 eV

  Self-consistency convergence accuracy:
  | Change of charge density      : 0.2903E-05
  | Change of sum of eigenvalues  : -.3287E-04 eV
  | Change of total energy        : 0.1347E-04 eV

  End self-consistency iteration #     7       :  max(cpu_time)    wall_clock(cpu1)
  | Time for this iteration                    :        0.764 s           0.765 s
  | Charge density update                      :        0.140 s           0.137 s
  | Density mixing                             :        0.024 s           0.023 s
  | Hartree multipole update                   :        0.064 s           0.063 s
  | Hartree multipole summation                :        0.256 s           0.256 s
  | Integration                                :        0.272 s           0.271 s
  | Fock matrix evaluation                     :        0.016 s           0.013 s
  | Solution of K.-S. eqns.                    :        0.004 s           0.001 s
  | Total energy evaluation                    :        0.000 s           0.000 s
------------------------------------------------------------

------------------------------------------------------------
          Begin self-consistency iteration #    8

  Date     :  20140812, Time     :  111938.539
------------------------------------------------------------
  Evaluating new KS density.
  Integration grid: deviation in total charge (<rho> - N_e) =   5.329071E-15
  Pulay mixing of updated and previous charge densities.

  Evaluating partitioned Hartree potential by multipole expansion.
  | Analytical far-field extrapolation by fixed multipoles:
  | Hartree multipole sum: apparent total charge =  -0.111937E-06
  Summing up the Hartree potential.
  Time summed over all CPUs for potential: real work        1.105 s, elapsed        1.174 s
  | RMS charge density error from multipole expansion :   0.377788E-03

  Integrating Hamiltonian matrix: batch-based integration.
  Time summed over all CPUs for integration: real work        1.103 s, elapsed        1.152 s
  Evaluating the exchange matrix ... 

  Updating Kohn-Sham eigenvalues, eigenvectors, occupation numbers, and Fermi level.
  Solving generalized eigenproblem
  Updating Kohn-Sham eigenvalues and eigenfunctions.
  Solving real generalised eigenvalue problem by standard LAPACK (fast)
  Determining occupation numbers for Kohn-Sham eigenstates.
  | Chemical potential (Fermi level) in eV                 : -.59102639E+01
  | Error in electron count due to remaining E_F inaccuracy: 0.00000000E+00
  | Maximum occupation number of highest empty state:  0.00E+00

  Highest occupied state (VBM) at    -10.58621876 eV
  | Occupation number:      2.00000000

  Lowest unoccupied state (CBM) at    -1.23430894 eV
  | Occupation number:      0.00000000

  Overall HOMO-LUMO gap:      9.35190982 eV.

  Total energy components:
  | Sum of eigenvalues            :          -0.77807278 Ha         -21.17243752 eV
  | XC energy correction          :           0.41284783 Ha          11.23416098 eV
  | XC potential correction       :           0.00000000 Ha           0.00000000 eV
  | Free-atom electrostatic energy:          -0.55865423 Ha         -15.20175496 eV
  | Hartree energy correction     :          -0.00243256 Ha          -0.06619333 eV
  | Entropy correction            :           0.00000000 Ha           0.00000000 eV
  | ---------------------------
  | Total energy                  :          -0.92631174 Ha         -25.20622484 eV
  | Total energy, T -> 0          :          -0.92631174 Ha         -25.20622484 eV  <-- do not rely on this value for anything but (periodic) metals
  | Electronic free energy        :          -0.92631174 Ha         -25.20622484 eV

  Derived energy quantities:
  | Kinetic energy                :           0.66395886 Ha          18.06723974 eV
  | Electrostatic energy          :          -1.17742277 Ha         -32.03930361 eV
  | Energy correction for multipole
  | error in Hartree potential    :          -0.00005731 Ha          -0.00155944 eV
  | Sum of eigenvalues per atom                           :         -10.58621876 eV
  | Total energy (T->0) per atom                          :         -12.60311242 eV  <-- do not rely on this value for anything but (periodic) metals
  | Electronic free energy per atom                       :         -12.60311242 eV

  Self-consistency convergence accuracy:
  | Change of charge density      : 0.7949E-06
  | Change of sum of eigenvalues  : 0.1619E-04 eV
  | Change of total energy        : -.5702E-05 eV

  End self-consistency iteration #     8       :  max(cpu_time)    wall_clock(cpu1)
  | Time for this iteration                    :        0.832 s           0.832 s
  | Charge density update                      :        0.140 s           0.138 s
  | Density mixing                             :        0.028 s           0.028 s
  | Hartree multipole update                   :        0.072 s           0.069 s
  | Hartree multipole summation                :        0.296 s           0.295 s
  | Integration                                :        0.288 s           0.288 s
  | Fock matrix evaluation                     :        0.016 s           0.012 s
  | Solution of K.-S. eqns.                    :        0.004 s           0.002 s
  | Total energy evaluation                    :        0.000 s           0.000 s
------------------------------------------------------------

------------------------------------------------------------
          Begin self-consistency iteration #    9

  Date     :  20140812, Time     :  111939.372
------------------------------------------------------------
  Evaluating new KS density.
  Integration grid: deviation in total charge (<rho> - N_e) =   3.552714E-15
  Pulay mixing of updated and previous charge densities.

  Evaluating partitioned Hartree potential by multipole expansion.
  | Analytical far-field extrapolation by fixed multipoles:
  | Hartree multipole sum: apparent total charge =  -0.111937E-06
  Summing up the Hartree potential.
  Time summed over all CPUs for potential: real work        0.999 s, elapsed        1.009 s
  | RMS charge density error from multipole expansion :   0.377788E-03

  Integrating Hamiltonian matrix: batch-based integration.
  Time summed over all CPUs for integration: real work        1.074 s, elapsed        1.084 s
  Evaluating the exchange matrix ... 

  Updating Kohn-Sham eigenvalues, eigenvectors, occupation numbers, and Fermi level.
  Solving generalized eigenproblem
  Updating Kohn-Sham eigenvalues and eigenfunctions.
  Solving real generalised eigenvalue problem by standard LAPACK (fast)
  Determining occupation numbers for Kohn-Sham eigenstates.
  | Chemical potential (Fermi level) in eV                 : -.59102632E+01
  | Error in electron count due to remaining E_F inaccuracy: 0.00000000E+00
  | Maximum occupation number of highest empty state:  0.00E+00

  Highest occupied state (VBM) at    -10.58621868 eV
  | Occupation number:      2.00000000

  Lowest unoccupied state (CBM) at    -1.23430779 eV
  | Occupation number:      0.00000000

  Overall HOMO-LUMO gap:      9.35191090 eV.

  Total energy components:
  | Sum of eigenvalues            :          -0.77807277 Ha         -21.17243737 eV
  | XC energy correction          :           0.41284799 Ha          11.23416547 eV
  | XC potential correction       :           0.00000000 Ha           0.00000000 eV
  | Free-atom electrostatic energy:          -0.55865423 Ha         -15.20175496 eV
  | Hartree energy correction     :          -0.00243265 Ha          -0.06619572 eV
  | Entropy correction            :           0.00000000 Ha           0.00000000 eV
  | ---------------------------
  | Total energy                  :          -0.92631165 Ha         -25.20622258 eV
  | Total energy, T -> 0          :          -0.92631165 Ha         -25.20622258 eV  <-- do not rely on this value for anything but (periodic) metals
  | Electronic free energy        :          -0.92631165 Ha         -25.20622258 eV

  Derived energy quantities:
  | Kinetic energy                :           0.66395929 Ha          18.06725154 eV
  | Electrostatic energy          :          -1.17742295 Ha         -32.03930865 eV
  | Energy correction for multipole
  | error in Hartree potential    :          -0.00005731 Ha          -0.00155944 eV
  | Sum of eigenvalues per atom                           :         -10.58621868 eV
  | Total energy (T->0) per atom                          :         -12.60311129 eV  <-- do not rely on this value for anything but (periodic) metals
  | Electronic free energy per atom                       :         -12.60311129 eV

  Self-consistency convergence accuracy:
  | Change of charge density      : 0.6150E-07
  | Change of sum of eigenvalues  : 0.1517E-06 eV
  | Change of total energy        : 0.2257E-05 eV

  End self-consistency iteration #     9       :  max(cpu_time)    wall_clock(cpu1)
  | Time for this iteration                    :        0.768 s           0.768 s
  | Charge density update                      :        0.136 s           0.135 s
  | Density mixing                             :        0.032 s           0.031 s
  | Hartree multipole update                   :        0.064 s           0.063 s
  | Hartree multipole summation                :        0.256 s           0.253 s
  | Integration                                :        0.272 s           0.271 s
  | Fock matrix evaluation                     :        0.016 s           0.013 s
  | Solution of K.-S. eqns.                    :        0.004 s           0.002 s
  | Total energy evaluation                    :        0.000 s           0.000 s
------------------------------------------------------------

------------------------------------------------------------
          Begin self-consistency iteration #   10

  Date     :  20140812, Time     :  111940.141
------------------------------------------------------------
  Evaluating new KS density.
  Integration grid: deviation in total charge (<rho> - N_e) =   7.105427E-15
  Pulay mixing of updated and previous charge densities.

  Evaluating partitioned Hartree potential by multipole expansion.
  | Analytical far-field extrapolation by fixed multipoles:
  | Hartree multipole sum: apparent total charge =  -0.111937E-06
  Summing up the Hartree potential.
  Time summed over all CPUs for potential: real work        1.028 s, elapsed        1.041 s
  | RMS charge density error from multipole expansion :   0.377788E-03

  Integrating Hamiltonian matrix: batch-based integration.
  Time summed over all CPUs for integration: real work        1.073 s, elapsed        1.097 s
  Evaluating the exchange matrix ... 

  Updating Kohn-Sham eigenvalues, eigenvectors, occupation numbers, and Fermi level.
  Solving generalized eigenproblem
  Updating Kohn-Sham eigenvalues and eigenfunctions.
  Solving real generalised eigenvalue problem by standard LAPACK (fast)
  Determining occupation numbers for Kohn-Sham eigenstates.
  | Chemical potential (Fermi level) in eV                 : -.59102633E+01
  | Error in electron count due to remaining E_F inaccuracy: 0.00000000E+00
  | Maximum occupation number of highest empty state:  0.00E+00

  Highest occupied state (VBM) at    -10.58621868 eV
  | Occupation number:      2.00000000

  Lowest unoccupied state (CBM) at    -1.23430784 eV
  | Occupation number:      0.00000000

  Overall HOMO-LUMO gap:      9.35191083 eV.

  Total energy components:
  | Sum of eigenvalues            :          -0.77807277 Ha         -21.17243735 eV
  | XC energy correction          :           0.41284800 Ha          11.23416563 eV
  | XC potential correction       :           0.00000000 Ha           0.00000000 eV
  | Free-atom electrostatic energy:          -0.55865423 Ha         -15.20175496 eV
  | Hartree energy correction     :          -0.00243264 Ha          -0.06619556 eV
  | Entropy correction            :           0.00000000 Ha           0.00000000 eV
  | ---------------------------
  | Total energy                  :          -0.92631164 Ha         -25.20622225 eV
  | Total energy, T -> 0          :          -0.92631164 Ha         -25.20622225 eV  <-- do not rely on this value for anything but (periodic) metals
  | Electronic free energy        :          -0.92631164 Ha         -25.20622225 eV

  Derived energy quantities:
  | Kinetic energy                :           0.66395929 Ha          18.06725166 eV
  | Electrostatic energy          :          -1.17742294 Ha         -32.03930829 eV
  | Energy correction for multipole
  | error in Hartree potential    :          -0.00005731 Ha          -0.00155944 eV
  | Sum of eigenvalues per atom                           :         -10.58621868 eV
  | Total energy (T->0) per atom                          :         -12.60311113 eV  <-- do not rely on this value for anything but (periodic) metals
  | Electronic free energy per atom                       :         -12.60311113 eV

  Self-consistency convergence accuracy:
  | Change of charge density      : 0.6679E-08
  | Change of sum of eigenvalues  : 0.1626E-07 eV
  | Change of total energy        : 0.3282E-06 eV

  Writing Kohn-Sham eigenvalues.

  State    Occupation    Eigenvalue [Ha]    Eigenvalue [eV]
      1       2.00000          -0.389036          -10.58622
      2       0.00000          -0.045360           -1.23431
      3       0.00000           0.184050            5.00827
      4       0.00000           0.216330            5.88664
      5       0.00000           0.336518            9.15713
      6       0.00000           0.336518            9.15713
      7       0.00000           0.424008           11.53784
      8       0.00000           0.499459           13.59098
      9       0.00000           0.499459           13.59098
     10       0.00000           0.751563           20.45107
     11       0.00000           0.990968           26.96562
     12       0.00000           1.067011           29.03483
     13       0.00000           1.119096           30.45215
     14       0.00000           1.119096           30.45215
     15       0.00000           1.140134           31.02464
     16       0.00000           1.140134           31.02464
     17       0.00000           1.271514           34.59964
     18       0.00000           1.319884           35.91588
     19       0.00000           1.319884           35.91588
     20       0.00000           1.620320           44.09115
     21       0.00000           1.620320           44.09115
     22       0.00000           1.816461           49.42841
     23       0.00000           1.816461           49.42841
     24       0.00000           2.017859           54.90874
     25       0.00000           2.017859           54.90874
     26       0.00000           2.030408           55.25021
     27       0.00000           2.089532           56.85906
     28       0.00000           2.708947           73.71420
     29       0.00000           3.288595           89.48722
     30       0.00000           3.288595           89.48722
     31       0.00000           3.305136           89.93732
     32       0.00000           3.305136           89.93732
     33       0.00000           3.396527           92.42421
     34       0.00000           3.448235           93.83126
     35       0.00000           3.448235           93.83126
     36       0.00000           3.554283           96.71697
     37       0.00000           3.554283           96.71697
     38       0.00000           3.809246          103.65486
     39       0.00000           3.809246          103.65486
     40       0.00000           4.031618          109.70590
     41       0.00000           4.032996          109.74339
     42       0.00000           4.259737          115.91333
     43       0.00000           4.259737          115.91333
     44       0.00000           4.561262          124.11825
     45       0.00000           5.253220          142.94740
     46       0.00000           5.253220          142.94740
     47       0.00000           5.351046          145.60937
     48       0.00000           5.351046          145.60937
     49       0.00000           5.523145          150.29243
     50       0.00000           5.523145          150.29243
     51       0.00000           6.004918          163.40214
     52       0.00000           6.242451          169.86573
     53       0.00000           6.242451          169.86573
     54       0.00000           7.823613          212.89135
     55       0.00000           8.497632          231.23232
     56       0.00000           8.497632          231.23232
     57       0.00000           8.939931          243.26790
     58       0.00000           8.939931          243.26790
     59       0.00000           9.095944          247.51323
     60       0.00000          10.229698          278.36426
     61       0.00000          21.995502          598.52807
     62       0.00000          22.600423          614.98880

  Highest occupied state (VBM) at    -10.58621868 eV
  | Occupation number:      2.00000000

  Lowest unoccupied state (CBM) at    -1.23430784 eV
  | Occupation number:      0.00000000

  Overall HOMO-LUMO gap:      9.35191083 eV.

  Self-consistency cycle converged.

  End self-consistency iteration #    10       :  max(cpu_time)    wall_clock(cpu1)
  | Time for this iteration                    :        0.800 s           0.800 s
  | Charge density update                      :        0.140 s           0.140 s
  | Density mixing                             :        0.036 s           0.035 s
  | Hartree multipole update                   :        0.068 s           0.070 s
  | Hartree multipole summation                :        0.264 s           0.261 s
  | Integration                                :        0.276 s           0.274 s
  | Fock matrix evaluation                     :        0.016 s           0.015 s
  | Solution of K.-S. eqns.                    :        0.004 s           0.001 s
  | Total energy evaluation                    :        0.000 s           0.000 s
------------------------------------------------------------

  Energy and forces in a compact form:
  | Total energy uncorrected      :         -0.252062222531635E+02 eV
  | Total energy corrected        :         -0.252062222531635E+02 eV  <-- do not rely on this value for anything but (periodic) metals
  | Electronic free energy        :         -0.252062222531635E+02 eV

  ------------------------------------ 
  Start decomposition of the XC Energy 
  ------------------------------------ 
  Hartree-Fock part   :          0.412847998 Ha             11.234165626 eV
  ------------------------------------ 
  X Energy            :          0.412847998 Ha             11.234165626 eV
  C Energy GGA        :          0.000000000 Ha              0.000000000 eV
  Total XC Energy     :          0.412847998 Ha             11.234165626 eV
  LDA X and C from self-consistent density 
  X Energy LDA        :         -0.380534883 Ha            -10.354881017 eV
  C Energy LDA        :         -0.079171385 Ha             -2.154362992 eV
  ------------------------------------ 
  End decomposition of the XC Energy 
  ------------------------------------ 
---------------------------------------------
---------------------------------------------
 | MP2 calculation starts ...
---------------------------------------------

  | Note : Resolution of identity applied 
  | Note : Non spin-polarized system 
---------------------------------------------
  | Homo level                                        1
  | Lumo level                                        2
  | Total Number of states                           62
  | Number of k-points                                1
  | Homo-Lumo Gap                            0.34367641 Ha          9.35191083 eV
---------------------------------------------
  The ovlp_3KS matrix takes another      0 MiB x      4 procs =       0.000 GiB.


---------------------------------------------
| Sum of correlation terms 
---------------------------------------------
  | Pair state     1                    :         -1.45991370 eV         -1.45991370 eV

---------------------------------------------
| Correlation energy spectrum 
---------------------------------------------
  |     2    :         -0.04535998        -0.03100850
  |     3    :          0.18405049        -0.00112178
  |     4    :          0.21633001        -0.00577867
  |     5    :          0.33651824        -0.00163483
  |     6    :          0.33651824        -0.00163483
  |     7    :          0.42400782        -0.00150126
  |     8    :          0.49945939        -0.00051196
  |     9    :          0.49945939        -0.00051196
  |    10    :          0.75156300        -0.00098491
  |    11    :          0.99096836        -0.00120441
  |    12    :          1.06701057        -0.00163530
  |    13    :          1.11909604        -0.00029275
  |    14    :          1.11909604        -0.00029275
  |    15    :          1.14013446        -0.00013629
  |    16    :          1.14013446        -0.00013629
  |    17    :          1.27151358        -0.00072065
  |    18    :          1.31988421        -0.00008242
  |    19    :          1.31988421        -0.00008242
  |    20    :          1.62031990        -0.00019386
  |    21    :          1.62031990        -0.00019386
  |    22    :          1.81646084        -0.00051193
  |    23    :          1.81646084        -0.00051193
  |    24    :          2.01785903        -0.00029791
  |    25    :          2.01785903        -0.00029791
  |    26    :          2.03040778        -0.00034804
  |    27    :          2.08953218        -0.00031303
  |    28    :          2.70894709        -0.00011127
  |    29    :          3.28859481        -0.00003277
  |    30    :          3.28859481        -0.00003277
  |    31    :          3.30513561        -0.00004566
  |    32    :          3.30513561        -0.00004566
  |    33    :          3.39652713        -0.00012325
  |    34    :          3.44823544        -0.00002199
  |    35    :          3.44823544        -0.00002199
  |    36    :          3.55428344        -0.00001977
  |    37    :          3.55428344        -0.00001977
  |    38    :          3.80924594        -0.00002399
  |    39    :          3.80924594        -0.00002399
  |    40    :          4.03161784        -0.00026064
  |    41    :          4.03299554        -0.00019030
  |    42    :          4.25973660        -0.00003371
  |    43    :          4.25973660        -0.00003371
  |    44    :          4.56126178        -0.00004874
  |    45    :          5.25322042        -0.00004001
  |    46    :          5.25322043        -0.00004001
  |    47    :          5.35104610        -0.00004365
  |    48    :          5.35104610        -0.00004365
  |    49    :          5.52314521        -0.00003495
  |    50    :          5.52314522        -0.00003495
  |    51    :          6.00491811        -0.00004416
  |    52    :          6.24245101        -0.00002904
  |    53    :          6.24245101        -0.00002904
  |    54    :          7.82361325        -0.00002409
  |    55    :          8.49763155        -0.00004686
  |    56    :          8.49763155        -0.00004686
  |    57    :          8.93993108        -0.00004048
  |    58    :          8.93993108        -0.00004048
  |    59    :          9.09594404        -0.00003767
  |    60    :         10.22969847        -0.00002706
  |    61    :         21.99550240        -0.00000901
  |    62    :         22.60042311        -0.00000842
---------------------------------------------
 
 
 
          ---------------------------------------------
          | MP2 calculation comes to finish ...  
 
          ---------------------------------------------
          | Total time for calculating MP2 correction              :        0.000 s

          ---------------------------------------------

---------------------------------------------
  | HF Energy                      :         -0.92631164 Ha        -25.20622225 eV
  | MP2 correction                 :         -0.05365084 Ha         -1.45991370 eV
---------------------------------------------
  | Total Energy + MP2 correction  :         -0.97996248 Ha        -26.66613595 eV
---------------------------------------------

------------------------------------------------------------------------------
  Final output of selected total energy values:

  The following output summarizes some interesting total energy values
  at the end of a run (AFTER all relaxation, molecular dynamics, etc.).

  | Total energy of the DFT / Hartree-Fock s.c.f. calculation      :            -25.206222253 eV
  | Final zero-broadening corrected energy (caution - metals only) :            -25.206222253 eV
  | Total energy after the post-s.c.f. correlation calculation     :            -26.666135951 eV
  | For reference only, the value of 1 Hartree used in FHI-aims is :             27.211384500 eV

  Before relying on these values, please be sure to understand exactly which
  total energy value is referred to by a given number. Different objects may
  all carry the same name 'total energy'. Definitions:

  Total energy of the DFT / Hartree-Fock s.c.f. calculation:
  | Note that this energy does not include ANY quantities calculated after the
  | s.c.f. cycle, in particular not ANY RPA, MP2, etc. many-body perturbation terms.

  Final zero-broadening corrected energy:
  | For metallic systems only, a broadening of the occupation numbers at the Fermi
  | level can be extrapolated back to zero broadening by an electron-gas inspired
  | formula. For all systems that are not real metals, this value can be
  | meaningless and should be avoided.

  Total energy of the post-s.c.f. correlation calculation        :
  | The actual meaning of this energy depends on the setting for the 'total_energy_method'
  | keyword (MP2, RPA, rPT2, etc). If not sure, compare to the results listed above.

------------------------------------------------------------------------------

  Methods described in the following list of references were used in this FHI-aims run.
  If you publish the results, please make sure to cite these reference if they apply.
  FHI-aims is an academic code, and for our developers (often, Ph.D. students
  and postdocs), scientific credit in the community is essential.
  Thank you for helping us!

  For any use of FHI-aims, please cite:

    Volker Blum, Ralf Gehrke, Felix Hanke, Paula Havu, Ville Havu,
    Xinguo Ren, Karsten Reuter, and Matthias Scheffler,
    "Ab initio molecular simulations with numeric atom-centered orbitals"
    Computer Physics Communications 180, 2175-2196 (2009).
    http://dx.doi.org/10.1016/j.cpc.2009.06.022

  For Hartree-Fock, hybrid functionals, or many-body perturbation theory used in your run, please cite:

    Xinguo Ren, Patrick Rinke, Volker Blum, Juergen Wieferink, Alex Tkatchenko,
    Andrea Sanfilippo, Karsten Reuter, and Matthias Scheffler,
    "Resolution-of-identity approach to Hartree-Fock, hybrid density functionals,
     RPA, MP2, and GW with numeric atom-centered orbital basis functions"
    New Journal of Physics 14, 053020 (2012).
    http://dx.doi.org/10.1088/1367-2630/14/5/053020

  For the NAO-VCC-nZ basis sets used in this calculation, please cite:

    Igor Ying Zhang, Xinguo Ren, Patrick Rinke, Volker Blum, and Matthias Scheffler,
    "Numeric atom-centered-orbital basis sets with valence-correlation consistency from H to Ar"
    New Journal of Physics 15, 123033 (2013).
    http://dx.doi.org/10.1088/1367-2630/15/12/123033

  For the real-space grid partitioning and parallelization used in this calculation, please cite:

    Ville Havu, Volker Blum, Paula Havu, and Matthias Scheffler,
    "Efficient O(N) integration for all-electron electronic
    structure calculation using numerically tabulated basis functions"
    Journal of Computational Physics 228, 8367-8379 (2009).
    http://dx.doi.org/10.1016/j.jcp.2009.08.008

  Of course, there are many other important community references, e.g., those cited in the
  above references. Our list is limited to references that describe implementations in the FHI-aims
  code. The reason is purely practical (length of this list) - please credit others as well.

------------------------------------------------------------
          Leaving FHI-aims.
          Date     :  20140812, Time     :  111940.980

          Computational steps:
          | Number of self-consistency cycles          :           10

          Detailed time accounting                     :  max(cpu_time)    wall_clock(cpu1)
          | Total time                                 :       33.294 s          33.355 s
          | Preparation time                           :        0.228 s           0.260 s
          | Grid partitioning                          :        0.324 s           0.326 s
          | Preloading free-atom quantities on grid    :        0.068 s           0.068 s
          | Free-atom superposition energy             :        0.036 s           0.034 s
          | Total time for integrations                :        3.236 s           3.227 s
          | Product basis setup: Total time            :        0.000 s           0.000 s
          | Product basis: | 3-center integrations     :       23.869 s          23.912 s
          | Product basis: | 2-center integrations     :        0.252 s           0.251 s
          | Product basis: | 2-center linear algebra   :        0.080 s           0.078 s
          | Product basis: | 3-center x 2-center       :        0.028 s           0.025 s
          | Total time evaluating exchange matrix      :        0.136 s           0.125 s
          | Transforming ovlp_3fn to ovlp_3KS          :        0.012 s           0.011 s
          | Total time for solution of K.-S. equations :        0.048 s           0.018 s
          | Total time for density update              :        1.384 s           1.370 s
          | Total time for mixing                      :        0.184 s           0.177 s
          | Total time for Hartree multipole update    :        0.656 s           0.649 s
          | Total time for Hartree multipole sum       :        2.604 s           2.594 s
          | Total time for total energy evaluation     :        0.004 s           0.003 s

          Have a nice day.
------------------------------------------------------------
