  MPI-parallelism will be employed.
------------------------------------------------------------
          Invoking FHI-aims ...
          Version 072414
          Compiled on 2014/08/06 at 00:00:04 on host theobook58.

          When using FHI-aims, please cite the following reference:

          Volker Blum, Ralf Gehrke, Felix Hanke, Paula Havu,
          Ville Havu, Xinguo Ren, Karsten Reuter, and Matthias Scheffler,
          'Ab Initio Molecular Simulations with Numeric Atom-Centered Orbitals: FHI-aims',
          Computer Physics Communications 180, 2175-2196 (2009)

          For any questions about FHI-aims, please visit the aimsclub website
          with its forums and wiki. Contributions to both the forums and the
          wiki are warmly encouraged - they are for you, and everyone is welcome there.

------------------------------------------------------------

  Date     :  20140812, Time     :  112256.644
  Time zero on CPU 1             :   0.200000000000000E-01  s.
  Internal wall clock time zero  :           177074576.644  s.

  Using        4 parallel tasks.
  Task        0 on host theobook58 reporting.
  Task        1 on host theobook58 reporting.
  Task        2 on host theobook58 reporting.
  Task        3 on host theobook58 reporting.

  Performing system and environment tests:
  | Environment variable OMP_NUM_THREADS correctly set to 1.
  | Stacksize not measured: no C compiler
  | Checking for scalapack...
  | No scalapack compiled in.

  Obtaining array dimensions for all initial allocations:
  
  -----------------------------------------------------------------------
  Parsing control.in (first pass over file, find array dimensions only).
  The contents of control.in will be repeated verbatim below
  unless switched off by setting 'verbatim_writeout .false.' .
  in the first line of control.in .
  -----------------------------------------------------------------------
  
  xc                      hf
  total_energy_method     mp2
  relativistic            none
  occupation_type         integer 0.0001
  mixer                   pulay
  n_max_pulay             10
  charge_mix_param        0.6
  sc_iter_limit           600
  sc_accuracy_rho         1E-6
  sc_accuracy_eev         1E-4
  sc_accuracy_etot        1E-6
  override_illconditioning .true.
  charge                  0
  ################################################################################
  #
  #  FHI-aims code project
  # Igor Ying Zhang and Xinguo Ren, Fritz Haber Institute Berlin, 2012
  #
  #  Suggested "NAO-VCC-4Z" defaults for H atom (to be pasted into control.in file)
  #
  #  Please cite:
  #
  #  Igor Ying Zhang, Xinguo Ren, Patrick Rinke, Volker Blum, and Matthias Scheffler,
  #  "Numeric atom-centered-orbital basis sets with valence-correlation consistency from H to Ar"
  #  New Journal of Physics 15, 123033 (2013).
  #  http://dx.doi.org/10.1088/1367-2630/15/12/123033
  #
  ################################################################################
    species        H
  #     set basis set reference for FHI-aims output
      cite_reference NAO-VCC-2013
  #     global species definitions
      nucleus             1
      mass                1.00794
  #
      l_hartree           6
  #
      cut_pot             4.0  2.0  1.0
      basis_dep_cutoff    0e-4
  #
      radial_base         24 7.0
  radial_multiplier               6
      angular_grids       specified
        division   0.1930   50
        division   0.3175  110
        division   0.4293  194
        division   0.5066  302
        division   0.5626  434
        division   0.5922  590
  #      division   0.6227  974
  #      division   0.6868 1202
        outer_grid  770
  #      outer_grid  434
  ################################################################################
  #
  #  Definition of "minimal" basis
  #
  ################################################################################
  #     valence basis states
      valence      1  s   1.
  #     ion occupancy
      ion_occ      1  s   0.5
  ################################################################################
  
  
   basis_acc              1e-04
  #============================================
  # Optimization in      H for       NAO-VCC-4Z
  #============================================
  # (sp) correlation set
   hydro     1     s      1.15655525
   hydro     1     s      1.68684502
   hydro     1     s      2.46027686
   hydro     2     p      2.92145897
   hydro     2     p      4.14501835
   hydro     2     p      5.88102632
  # polarization set
   hydro     3     d      6.41446874
   hydro     3     d      7.67536483
   hydro     4     f     10.80870049
  # (sp) enhanced minimal set
   hydro     1     s      3.58833335
  
  -----------------------------------------------------------------------
  Completed first pass over input file control.in .
  -----------------------------------------------------------------------
  
  
  -----------------------------------------------------------------------
  Parsing geometry.in (first pass over file, find array dimensions only).
  The contents of geometry.in will be repeated verbatim below
  unless switched off by setting 'verbatim_writeout .false.' .
  in the first line of geometry.in .
  -----------------------------------------------------------------------
  
  atom             0.0             0.0             0.0    H
  atom             0.0             0.0             3.4    H
  
  -----------------------------------------------------------------------
  Completed first pass over input file geometry.in .
  -----------------------------------------------------------------------
  

  Basic array size parameters:
  | Number of species                 :        1
  | Number of atoms                   :        2
  | Max. basis fn. angular momentum   :        3
  | Max. atomic/ionic basis occupied n:        1
  | Max. number of basis fn. types    :        2
  | Max. radial fns per species/type  :       10
  | Max. logarithmic grid size        :     1131
  | Max. radial integration grid size :      149
  | Max. angular integration grid size:      770
  | Max. angular grid division number :        8
  | Radial grid for Hartree potential :     1131
  | Number of spin channels           :        1

------------------------------------------------------------
          Reading file control.in.
------------------------------------------------------------
 
  Hartree-Fock calculation starts ...... 
  Attention: this version of Hartree-Fock employs an auxiliary basis. 
 
  MP2 correlation energy calculation will be started after the DFT/HF calculation.
  Non-relativistic treatment of kinetic energy.
  Occupation type: Integer occupation.
  Using pulay charge density mixing.
  Pulay mixing - number of memorized iterations:   10
  Charge density mixing - mixing parameter:     0.6000
  Maximum number of s.-c. iterations  :   600
  Convergence accuracy of self-consistent charge density: 0.1000E-05
  Convergence accuracy of sum of eigenvalues: 0.1000E-03
  Convergence accuracy of total energy: 0.1000E-05
  override_illconditioning: Explicitly overriding any built-in checks for an ill-conditioned overlap matrix.
  *** WARNING: If you use this flag, you should really know what you are doing.
  *** DO NOT keep this flag set by default in all your control.in files.
  Charge =   0.000000E+00: Neutral system requested explicitly.
 
  Reading configuration options for species H                   .
  | Found nuclear charge :   1.0000
  | Found atomic mass :    1.00794000000000      amu
  | Found l_max for Hartree potential  :   6
  | Found cutoff potl. onset [A], width [A], scale factor :    4.00000    2.00000    1.00000
  | Threshold for basis-dependent cutoff potential is   0.000000E+00
  | Found data for basic radial integration grid :    24 points, outermost radius =    7.000 A
  | Found multiplier for basic radial grid :   6
  | Found angular grid specification: user-specified.
  | Specified grid contains     7 separate shells.
  | Check grid settings after all constraints further below.
  | Found free-atom valence shell :  1 s   1.000
  | No ionic wave fns used. Skipping ion_occ.
  | Found basis singularity cutoff : 0.1000E-03
  | Found hydrogenic basis function :  1 s   1.157
  | Found hydrogenic basis function :  1 s   1.687
  | Found hydrogenic basis function :  1 s   2.460
  | Found hydrogenic basis function :  2 p   2.921
  | Found hydrogenic basis function :  2 p   4.145
  | Found hydrogenic basis function :  2 p   5.881
  | Found hydrogenic basis function :  3 d   6.414
  | Found hydrogenic basis function :  3 d   7.675
  | Found hydrogenic basis function :  4 f  10.809
  | Found hydrogenic basis function :  1 s   3.588
  Species H                   : Missing cutoff potential type.
  Defaulting to exp(1/x)/(1-x)^2 type cutoff potential.
  Species H : No 'logarithmic' tag. Using default grid for free atom:
  | Default logarithmic grid data [bohr] : 0.1000E-03 0.1000E+03 0.1012E+01
  Species H                   : Using default innermost maximum threshold i_radial=  2 for radial functions.
  Species H                   : Default cutoff onset for free atom density etc. is infinite
  since the product basis is used (hybrid functionals, Hartree-Fock, GW etc.).
  Species H                   : Basic radial grid will be enhanced according to radial_multiplier =   6, to contain   149 grid points.
 
  Finished reading input file 'control.in'. Consistency checks are next.
 
  Species H: Using default value for prodbas_acc =   1.000000E-02.
  Species H: Using default value max_l_prodbas =     5.
  Target number of points in a grid batch is not set. Defaulting to  100
  Method for grid partitioning is not set. Defaulting to parallel hash+maxmin partitioning.
  Batch size limit is not set. Defaulting to    200
  By default, will store active basis functions for each batch.
  If in need of memory, prune_basis_once .false. can be used to disable this option.
  communication_type for Hartree potential was not specified.
  Defaulting to calc_hartree .
  Pulay mixer: Number of initial linear mixing iterations not set.
  Defaulting to    0 iterations.
  Work space size for distributed Hartree potential not set.
  Defaulting to   0.200000E+03 MB.
  Algorithm-dependent basis array size parameters:
  | n_max_pulay                         :       10
  Calculation of forces was not defined in control.in. No forces will be calculated.
  Geometry relaxation not requested: no relaxation will be performed.
  No accuracy limit for integral partition fn. given. Defaulting to 0.1000E-14.
  No threshold value for u(r) in integrations given. Defaulting to 0.1000E-05.
  No accuracy for occupation numbers given. Defaulting to 0.1000E-07.
  No threshold value for occupation numbers given. Defaulting to 0.0000E+00.
  No accuracy for fermi level given. Defaulting to 0.1000E-19.
  Maximum # of iterations to find E_F not set. Defaulting to  200.
  Preferred method for the eigenvalue solver ('KS_method') not specified in 'control.in'.
  Calling blacs routine to test compilation state
  The best choice would be 'elpa', but your version of FHI-aims is compiled without scalapack support.
  Defaulting to 'lapack_fast' instead (serial solution, time will not improve with more CPUs).
  Will not use alltoall communication since running on < 1024 CPUs.
  Threshold for basis singularities not set.
  Default threshold for basis singularities: 0.1000E-04
  partition_type (choice of integration weights) for integrals was not specified.
  | Using a version of the partition function of Stratmann and coworkers ('stratmann_smoother').
  | At each grid point, the set of atoms used to build the partition table is smoothly restricted to
  | only those atoms whose free-atom density would be non-zero at that grid point.
  Partitioning for Hartree potential was not defined. Using partition_type for integrals.
  | Adjusted default value of keyword multip_moments_threshold to:       0.10000000E-11
  | This value may affect high angular momentum components of the Hartree potential in periodic systems.
  Spin handling was not defined in control.in. Defaulting to unpolarized case.
  Threshold for auxiliary basis singularities not set.
  Default threshold for auxiliary basis singularities: 0.1000E-04
  No q(lm)/r^(l+1) cutoff set for long-range Hartree potential.
  | Using default value of  0.100000E-09 .
  | Verify using the multipole_threshold keyword.
  Defaulting to new monopole extrapolation.
  Density update method: automatic selection selected.
  Default to 1D ("use_logsbt") integrations for auxiliary 2-center integrals.
  Default onset of logarithmic r-grid for SBT is-38.000000000000
  Default onset of logarithmic k-grid for SBT is-25.000000000000
  Default range of logarithmic r- and k-grid for SBT is 45.000000000000
  Default number of logarithmic r- and k-grid for SBT is  4096
------------------------------------------------------------


------------------------------------------------------------
          Reading geometry description geometry.in.
------------------------------------------------------------
  Input structure read successfully.
  The structure contains        2 atoms,  and a total of          2.000 electrons.

  Input geometry:
  | No unit cell requested.
  | Atomic structure:
  |       Atom                x [A]            y [A]            z [A]
  |    1: Species H              0.000000         0.000000         0.000000
  |    2: Species H              0.000000         0.000000         3.400000
  |

  | The smallest distance between any two atoms is         3.40000000 AA.
  |
  | The first atom of this pair is atom number                      1 .
  | The second atom of this pair is atom number                     2 .

  Number of empty states per atom not set in control.in .
  | Since you are using a method that relies on the unoccupied spectrum
  | (MP2,GW,RPA et al.), will use the full Hamiltonian size (see below)
  | as the max. possible number of states (occupied plus empty).

  Structure-dependent array size parameters: 
  | Maximum number of distinct radial functions  :       11
  | Maximum number of basis functions            :       62
  | Number of Kohn-Sham states (occupied + empty):       62
------------------------------------------------------------

------------------------------------------------------------
          Preparing all fixed parts of the calculation.
------------------------------------------------------------
  Determining machine precision:
    2.225073858507201E-308
  Setting up grids for atomic and cluster calculations.

  Creating wave function, potential, and density for free atoms.

  Species: H

  List of occupied orbitals and eigenvalues:
    n    l              occ      energy [Ha]    energy [eV]
    1    0           1.0000        -0.233457        -6.3527

  Creating fixed part of basis set: Ionic, confined, hydrogenic.
 
  H                    hydrogenic:
 
  List of hydrogenic basis orbitals: 
    n    l      effective z      eigenvalue [eV]  inner max. [A]     outer max. [A]     outer radius [A]   
    1    0         1.156555       -18.1992           0.460320           0.460320           5.243229
    1    0         1.686845       -38.7143           0.315118           0.315118           4.932336
    1    0         2.460277       -82.3547           0.215718           0.215718           3.815562
    2    1         2.921459       -29.0309           0.723605           0.723605           5.243229
    2    1         4.145018       -58.4405           0.507614           0.507614           4.813203
    2    1         5.881026      -117.6432           0.360475           0.360475           3.678162
    3    2         6.414469       -62.2013           0.741515           0.741515           4.993004
    3    2         7.675365       -89.0587           0.617279           0.617279           4.583499
    4    3        10.808700       -99.3454           0.778676           0.778676           4.696947
    1    0         3.588333      -175.1887           0.147673           0.147673           2.644120
 

  Adding cutoff potential to free-atom effective potential.
  Creating atomic-like basis functions for current effective potential.

  Species H                   :

  List of atomic basis orbitals and eigenvalues:
    n    l      energy [Ha]    energy [eV]    outer radius [A]
    1    0        -0.233418        -6.3516       5.373006

  Assembling full basis from fixed parts.
  | Species H :   atomic orbital   1 s accepted.
  | Species H :    hydro orbital   1 s accepted.
  | Species H :    hydro orbital   1 s accepted.
  | Species H :    hydro orbital   1 s accepted.
  | Species H :    hydro orbital   1 s accepted.
  | Species H :    hydro orbital   2 p accepted.
  | Species H :    hydro orbital   2 p accepted.
  | Species H :    hydro orbital   2 p accepted.
  | Species H :    hydro orbital   3 d accepted.
  | Species H :    hydro orbital   3 d accepted.
  | Species H :    hydro orbital   4 f accepted.
 
  Basis size parameters after reduction:
  | Total number of radial functions:       11
  | Total number of basis functions :       62
 
  Testing on-site integration grid accuracy.
  |  Species  Function  <phi|h_atom|phi> (log., in eV)  <phi|h_atom|phi> (rad., in eV)
           1        1                 -6.3519216712                 -6.3519215989
           1        2                  8.4716038567                  8.4716058028
           1        3                 58.3749927434                 58.3750109815
           1        4                178.9024737125                178.9026031671
           1        5                456.3642310330                456.3649721232
           1        6                 16.2415699263                 16.2415699338
           1        7                 68.2932618880                 68.2932619123
           1        8                188.3801588017                188.3801587562
           1        9                 49.9849006789                 49.9849006869
           1       10                114.3821731125                114.3821730675
           1       11                 88.0899419283                 88.0899419237

  Preparing densities etc. for the partition functions (integrals / Hartree potential).

  Preparations completed.
  max(cpu_time)          :      0.180 s.
  Wall clock time (cpu1) :      0.198 s.
------------------------------------------------------------

------------------------------------------------------------
          Begin self-consistency loop: Initialization.

          Date     :  20140812, Time     :  112256.847
------------------------------------------------------------

  Initializing index lists of integration centers etc. from given atomic structure:
  | Number of centers in hartree potential         :         2
  | Number of centers in hartree multipole         :         2
  | Number of centers in electron density summation:         2
  | Number of centers in basis integrals           :         2
  | Number of centers in integrals                 :         2
  Partitioning the integration grid into batches with parallel hashing+maxmin method.
  | Number of batches:     1913
  | Maximal batch size:     150
  | Minimal batch size:      65
  | Average batch size:      75.486
  | Standard deviation of batch sizes:      18.366

  Integration load balanced across     4 MPI tasks.
  Work distribution over tasks is as follows:
  Task     0 has      36112 integration points.
  Task     1 has      36054 integration points.
  Task     2 has      36113 integration points.
  Task     3 has      36125 integration points.
  Initializing partition tables, free-atom densities, potentials, etc. across the integration grid (initialize_grid_storage).
  | Original list of interatomic distances with           2 x          2 entries is created.
  | Net number of integration points:   144404
  | of which are non-zero points    :   140968
  Obtaining max. number of non-zero basis functions in each batch (get_n_compute_maxes).
  | Maximal number of non-zero basis functions:       62 in task     0
  | Maximal number of non-zero basis functions:       62 in task     1
  | Maximal number of non-zero basis functions:       62 in task     2
  | Maximal number of non-zero basis functions:       62 in task     3
  Selecting the method for density update.
  Loop over occupied states selected for charge density update.
  Integrating Hamiltonian matrix: batch-based integration.
  Time summed over all CPUs for integration: real work        1.166 s, elapsed        1.186 s
  Integrating overlap matrix.
  Time summed over all CPUs for integration: real work        0.736 s, elapsed        0.755 s

  Updating Kohn-Sham eigenvalues, eigenvectors, occupation numbers, and Fermi level.
  Solving generalized eigenproblem
  Updating Kohn-Sham eigenvalues and eigenfunctions.
  Transforming overlap matrix and checking for singularities.
  Overlap matrix is nonsingular:
  | Lowest eigenvalue:  0.357231E+00
  Solving real generalised eigenvalue problem by standard LAPACK (fast)
  Determining occupation numbers for Kohn-Sham eigenstates.
  | Chemical potential (Fermi level) in eV                 : -.63603195E+01
  | Error in electron count due to remaining E_F inaccuracy: 0.00000000E+00
  | Maximum occupation number of highest empty state:  0.00E+00

  Writing Kohn-Sham eigenvalues.

  State    Occupation    Eigenvalue [Ha]    Eigenvalue [eV]
      1       2.00000          -0.241271           -6.56531
      2       0.00000          -0.226204           -6.15533
      3       0.00000           0.091329            2.48518
      4       0.00000           0.113807            3.09685
      5       0.00000           0.195995            5.33329
      6       0.00000           0.229061            6.23307
      7       0.00000           0.229061            6.23307
      8       0.00000           0.260965            7.10123
      9       0.00000           0.260965            7.10123
     10       0.00000           0.360723            9.81577
     11       0.00000           0.761770           20.72882
     12       0.00000           0.803743           21.87096
     13       0.00000           0.974267           26.51115
     14       0.00000           0.988117           26.88803
     15       0.00000           0.988117           26.88803
     16       0.00000           1.018074           27.70321
     17       0.00000           1.018074           27.70321
     18       0.00000           1.027080           27.94827
     19       0.00000           1.027080           27.94827
     20       0.00000           1.057790           28.78392
     21       0.00000           1.057790           28.78392
     22       0.00000           1.114852           30.33667
     23       0.00000           1.544980           42.04104
     24       0.00000           1.561347           42.48641
     25       0.00000           1.561347           42.48641
     26       0.00000           1.624547           44.20616
     27       0.00000           1.624547           44.20616
     28       0.00000           1.844533           50.19231
     29       0.00000           3.199257           87.05622
     30       0.00000           3.215836           87.50735
     31       0.00000           3.215836           87.50735
     32       0.00000           3.231720           87.93958
     33       0.00000           3.231720           87.93958
     34       0.00000           3.236726           88.07580
     35       0.00000           3.236726           88.07580
     36       0.00000           3.237648           88.10087
     37       0.00000           3.237648           88.10087
     38       0.00000           3.242496           88.23280
     39       0.00000           3.242496           88.23280
     40       0.00000           3.260679           88.72759
     41       0.00000           3.260679           88.72759
     42       0.00000           3.279940           89.25170
     43       0.00000           3.511554           95.55424
     44       0.00000           3.600886           97.98508
     45       0.00000           4.933357          134.24346
     46       0.00000           4.948030          134.64274
     47       0.00000           4.948030          134.64274
     48       0.00000           5.006756          136.24076
     49       0.00000           5.006756          136.24076
     50       0.00000           5.028663          136.83689
     51       0.00000           5.028663          136.83689
     52       0.00000           5.104333          138.89596
     53       0.00000           5.104333          138.89596
     54       0.00000           5.270512          143.41793
     55       0.00000           8.115158          220.82470
     56       0.00000           8.132587          221.29896
     57       0.00000           8.132587          221.29896
     58       0.00000           8.280564          225.32562
     59       0.00000           8.280564          225.32562
     60       0.00000           8.789758          239.18149
     61       0.00000          21.342441          580.75737
     62       0.00000          21.645356          589.00010

  Highest occupied state (VBM) at     -6.56530952 eV
  | Occupation number:      2.00000000

  Lowest unoccupied state (CBM) at    -6.15532952 eV
  | Occupation number:      0.00000000

  Overall HOMO-LUMO gap:      0.40998000 eV.
  Calculating total energy contributions from superposition of free atom densities.

  Total energy components:
  | Sum of eigenvalues            :          -0.48254138 Ha         -13.13061905 eV
  | XC energy correction          :          -0.46589912 Ha         -12.67775998 eV
  | XC potential correction       :           0.60729713 Ha          16.52539583 eV
  | Free-atom electrostatic energy:          -0.56539178 Ha         -15.38509304 eV
  | Hartree energy correction     :           0.00000000 Ha           0.00000000 eV
  | Entropy correction            :           0.00000000 Ha           0.00000000 eV
  | ---------------------------
  | Total energy                  :          -0.90653514 Ha         -24.66807624 eV
  | Total energy, T -> 0          :          -0.90653514 Ha         -24.66807624 eV  <-- do not rely on this value for anything but (periodic) metals
  | Electronic free energy        :          -0.90653514 Ha         -24.66807624 eV

  Derived energy quantities:
  | Kinetic energy                :           0.83557317 Ha          22.73710294 eV
  | Electrostatic energy          :          -1.27620920 Ha         -34.72741919 eV
  | Energy correction for multipole
  | error in Hartree potential    :           0.00000000 Ha           0.00000000 eV
  | Sum of eigenvalues per atom                           :          -6.56530952 eV
  | Total energy (T->0) per atom                          :         -12.33403812 eV  <-- do not rely on this value for anything but (periodic) metals
  | Electronic free energy per atom                       :         -12.33403812 eV
 
 --------------------------------------------
  Constructing auxiliary basis (full product) ...
 
  Product basis:
  | charge radius: extent of product basis function
  | field radius: extent of its Coulomb potential
  | Species   l  charge radius    field radius  multipol momen
  |    H      5     4.813203 A      4.813203 A  2.676041E-15 a.u.
  |    H      4     4.932336 A      4.932336 A  2.417679E-16 a.u.
  |    H      3     5.054418 A      5.054418 A  ************ a.u.
  |    H      4     5.054418 A      5.054418 A  ************ a.u.
  |    H      3     5.116587 A      5.116587 A  1.642688E-15 a.u.
  |    H      2     5.179521 A      5.179521 A  6.126280E-16 a.u.
  |    H      3     5.179521 A      5.179521 A  ************ a.u.
  |    H      2     5.243229 A      5.243229 A  1.485543E-16 a.u.
  |    H      2     5.243229 A      5.243229 A  1.683301E-16 a.u.
  |    H      2     5.243229 A      5.243229 A  ************ a.u.
  |    H      3     5.243229 A      5.243229 A  ************ a.u.
  |    H      1     5.307721 A      5.307721 A  2.416866E-16 a.u.
  |    H      1     5.307721 A      5.307721 A  1.291012E-16 a.u.
  |    H      2     5.307721 A      5.307721 A  7.871382E-16 a.u.
  |    H      0     5.373006 A      5.373006 A  9.519909E-17 a.u.
  |    H      1     5.373006 A      5.373006 A  2.334090E-16 a.u.
  |    H      1     5.373006 A      5.373006 A  ************ a.u.
  |    H      1     5.373006 A      5.373006 A  ************ a.u.
  |    H      1     5.373006 A      5.373006 A  1.823473E-16 a.u.
  |    H      0     5.373006 A      5.439094 A  ************ a.u.
  |    H      0     5.439094 A      5.439094 A  ************ a.u.
  |    H      0     5.439094 A      5.505995 A  9.305319E-17 a.u.
  |    H      0     5.439094 A      5.505995 A  4.082184E-17 a.u.
  |    H      0     5.439094 A      5.505995 A  3.169850E-16 a.u.
  |    H      0     5.439094 A      5.505995 A  2.711689E-16 a.u.
  |    H      5     4.872405 A  1.325110E+02 A           19.619780 a.u.
  |    H      4     5.054418 A  3.771796E+02 A           14.639479 a.u.
  |    H      3     5.243229 A  1.836978E+03 A           11.555842 a.u.
  |    H      2     5.307721 A  2.095310E+04 A            4.940052 a.u.
  |    H      1     5.373006 A  2.512347E+06 A            1.793689 a.u.
  |    H      0     5.439094 A  4.604132E+12 A            0.692368 a.u.

  | Shrink_full_auxil_basis : there are       31  radial auxiliary wave functions
                            accepted and      90 rejected.
  | Shrink_full_auxil_basis : there are totally     286 partial auxiliary wave functions.
 
  | Number of product basis functions per thread :    72
  | Minimal requirement for computer memories :           0.005 Gbs
 
  Basis pair condensation :      1953  -->       1953
 
 ----------------------------------------------------
  Integrating the 3-basis-function Coulomb matrix ...
  | i_atom:            1
  | i_atom:            2
  Integrating the Coulomb interaction matrix for auxiliary basis functions (by atoms)

  SBT integration errors (all should be 'small'):
  large logFT aliasing -> increase N/lnrange
  large SBT aliasing -> decrease lnk0 & increase lnk0+lnrange
  large SBT ringing -> decrease lnr0 & increase lnr0+lnrange
  |            El't  L: logFT-al.   small-k   large-k   small-r   large-r
  Atomic logSBT for 2-center Coulomb matrix    :  max(cpu_time)    wall_clock(cpu1)
  | Multiplication with kernel                 :        0.020 s           0.010 s
  | Main matrix multiplication                 :        0.068 s           0.043 s
  | Analytic angular integration               :        0.004 s           0.002 s
  | Kernel construction                        :        0.000 s           0.002 s
  | Overall 2-center overlap time              :        0.096 s           0.061 s

  Difference of Coulomb matrix to its transposed:  1.1102E-16
  Task     0: Eigenvalues of the Coulomb matrix range from    1.9904E+00 to    9.4759E-03.
  Task     0: Using      286   eigenvalues out of rank      286   Coulomb matrix (auxiliary basis).
 
  Multiplying V^-0.5 x ovlp_3fn (1d-scalapack)

  Initialize hartree_potential_storage
  Max. number of atoms included in rho_multipole:            2

  End scf initialization - timings             :  max(cpu_time)    wall_clock(cpu1)
  | Time for scf. initialization               :       24.522 s          24.547 s
  | Boundary condition initialization          :        0.000 s           0.000 s
  | Integration                                :        0.488 s           0.486 s
  | Solution of K.-S. eqns.                    :        0.008 s           0.004 s
  | Grid partitioning                          :        0.224 s           0.222 s
  | Preloading free-atom quantities on grid    :        0.068 s           0.067 s
  | Free-atom superposition energy             :        0.032 s           0.035 s
  | Total energy evaluation                    :        0.000 s           0.001 s
  | Product basis setup: Total time            :       23.625 s          23.653 s
  | Product basis: | 3-center integrations     :       23.165 s          23.184 s
  | Product basis: | 2-center integrations     :        0.252 s           0.252 s
  | Product basis: | 2-center linear algebra   :        0.088 s           0.085 s
  | Product basis: | 3-center x 2-center       :        0.024 s           0.025 s
------------------------------------------------------------

------------------------------------------------------------
          Begin self-consistency iteration #    1

  Date     :  20140812, Time     :  112321.395
------------------------------------------------------------
  Evaluating new KS density.
  Integration grid: deviation in total charge (<rho> - N_e) =   6.217249E-15
  Pulay mixing of updated and previous charge densities.

  Evaluating partitioned Hartree potential by multipole expansion.
  | Analytical far-field extrapolation by fixed multipoles:
  | Hartree multipole sum: apparent total charge =  -0.956312E-07
  Summing up the Hartree potential.
  Time summed over all CPUs for potential: real work        1.013 s, elapsed        1.021 s
  | RMS charge density error from multipole expansion :   0.293179E-04

  Integrating Hamiltonian matrix: batch-based integration.
  Time summed over all CPUs for integration: real work        1.078 s, elapsed        1.105 s
  Evaluating the exchange matrix ... 

  Updating Kohn-Sham eigenvalues, eigenvectors, occupation numbers, and Fermi level.
  Solving generalized eigenproblem
  Updating Kohn-Sham eigenvalues and eigenfunctions.
  Solving real generalised eigenvalue problem by standard LAPACK (fast)
  Determining occupation numbers for Kohn-Sham eigenstates.
  | Chemical potential (Fermi level) in eV                 : -.59059359E+01
  | Error in electron count due to remaining E_F inaccuracy: 0.00000000E+00
  | Maximum occupation number of highest empty state:  0.00E+00

  Writing Kohn-Sham eigenvalues.

  State    Occupation    Eigenvalue [Ha]    Eigenvalue [eV]
      1       2.00000          -0.304954           -8.29822
      2       0.00000          -0.129124           -3.51365
      3       0.00000           0.194054            5.28049
      4       0.00000           0.208531            5.67442
      5       0.00000           0.339022            9.22525
      6       0.00000           0.377997           10.28583
      7       0.00000           0.377997           10.28583
      8       0.00000           0.418543           11.38912
      9       0.00000           0.418543           11.38912
     10       0.00000           0.529017           14.39529
     11       0.00000           0.962778           26.19852
     12       0.00000           1.011733           27.53065
     13       0.00000           1.170606           31.85381
     14       0.00000           1.182575           32.17952
     15       0.00000           1.182575           32.17952
     16       0.00000           1.214050           33.03599
     17       0.00000           1.214050           33.03599
     18       0.00000           1.223977           33.30612
     19       0.00000           1.223977           33.30612
     20       0.00000           1.258215           34.23778
     21       0.00000           1.258215           34.23778
     22       0.00000           1.323997           36.02780
     23       0.00000           1.812783           49.32834
     24       0.00000           1.826851           49.71113
     25       0.00000           1.826851           49.71113
     26       0.00000           1.891189           51.46186
     27       0.00000           1.891189           51.46186
     28       0.00000           2.115161           57.55645
     29       0.00000           3.462516           94.21985
     30       0.00000           3.477307           94.62235
     31       0.00000           3.477307           94.62235
     32       0.00000           3.493462           95.06193
     33       0.00000           3.493462           95.06193
     34       0.00000           3.498238           95.19190
     35       0.00000           3.498238           95.19190
     36       0.00000           3.499206           95.21823
     37       0.00000           3.499206           95.21823
     38       0.00000           3.504718           95.36824
     39       0.00000           3.504718           95.36824
     40       0.00000           3.524064           95.89467
     41       0.00000           3.524064           95.89467
     42       0.00000           3.546318           96.50023
     43       0.00000           3.862878          105.11426
     44       0.00000           3.953952          107.59250
     45       0.00000           5.270238          143.41046
     46       0.00000           5.284189          143.79010
     47       0.00000           5.284189          143.79010
     48       0.00000           5.343279          145.39803
     49       0.00000           5.343279          145.39803
     50       0.00000           5.365588          146.00508
     51       0.00000           5.365588          146.00508
     52       0.00000           5.443170          148.11620
     53       0.00000           5.443170          148.11620
     54       0.00000           5.613601          152.75386
     55       0.00000           8.532683          232.18612
     56       0.00000           8.548726          232.62267
     57       0.00000           8.548726          232.62267
     58       0.00000           8.697676          236.67581
     59       0.00000           8.697676          236.67581
     60       0.00000           9.210461          250.62938
     61       0.00000          21.846295          594.46793
     62       0.00000          22.149866          602.72852

  Highest occupied state (VBM) at     -8.29822277 eV
  | Occupation number:      2.00000000

  Lowest unoccupied state (CBM) at    -3.51364901 eV
  | Occupation number:      0.00000000

  Overall HOMO-LUMO gap:      4.78457376 eV.

  Total energy components:
  | Sum of eigenvalues            :          -0.60990816 Ha         -16.59644554 eV
  | XC energy correction          :           0.35417994 Ha           9.63772641 eV
  | XC potential correction       :           0.00000000 Ha           0.00000000 eV
  | Free-atom electrostatic energy:          -0.56539178 Ha         -15.38509304 eV
  | Hartree energy correction     :           0.00782199 Ha           0.21284728 eV
  | Entropy correction            :           0.00000000 Ha           0.00000000 eV
  | ---------------------------
  | Total energy                  :          -0.81329801 Ha         -22.13096489 eV
  | Total energy, T -> 0          :          -0.81329801 Ha         -22.13096489 eV  <-- do not rely on this value for anything but (periodic) metals
  | Electronic free energy        :          -0.81329801 Ha         -22.13096489 eV

  Derived energy quantities:
  | Kinetic energy                :           0.79799345 Ha          21.71450668 eV
  | Electrostatic energy          :          -1.25711153 Ha         -34.20774516 eV
  | Energy correction for multipole
  | error in Hartree potential    :          -0.00000309 Ha          -0.00008404 eV
  | Sum of eigenvalues per atom                           :          -8.29822277 eV
  | Total energy (T->0) per atom                          :         -11.06548244 eV  <-- do not rely on this value for anything but (periodic) metals
  | Electronic free energy per atom                       :         -11.06548244 eV

  Self-consistency convergence accuracy:
  | Change of charge density      : 0.1357E-01
  | Change of sum of eigenvalues  : -.3466E+01 eV
  | Change of total energy        : 0.2537E+01 eV

  End self-consistency iteration #     1       :  max(cpu_time)    wall_clock(cpu1)
  | Time for this iteration                    :        0.756 s           0.754 s
  | Charge density update                      :        0.140 s           0.139 s
  | Density mixing                             :        0.004 s           0.003 s
  | Hartree multipole update                   :        0.064 s           0.064 s
  | Hartree multipole summation                :        0.256 s           0.257 s
  | Integration                                :        0.276 s           0.277 s
  | Fock matrix evaluation                     :        0.012 s           0.012 s
  | Solution of K.-S. eqns.                    :        0.000 s           0.001 s
  | Total energy evaluation                    :        0.000 s           0.000 s
------------------------------------------------------------

------------------------------------------------------------
          Begin self-consistency iteration #    2

  Date     :  20140812, Time     :  112322.149
------------------------------------------------------------
  Evaluating new KS density.
  Integration grid: deviation in total charge (<rho> - N_e) =   1.332268E-15
  Pulay mixing of updated and previous charge densities.

  Evaluating partitioned Hartree potential by multipole expansion.
  | Analytical far-field extrapolation by fixed multipoles:
  | Hartree multipole sum: apparent total charge =  -0.967182E-07
  Summing up the Hartree potential.
  Time summed over all CPUs for potential: real work        1.020 s, elapsed        1.026 s
  | RMS charge density error from multipole expansion :   0.142456E-04

  Integrating Hamiltonian matrix: batch-based integration.
  Time summed over all CPUs for integration: real work        1.065 s, elapsed        1.079 s
  Evaluating the exchange matrix ... 

  Updating Kohn-Sham eigenvalues, eigenvectors, occupation numbers, and Fermi level.
  Solving generalized eigenproblem
  Updating Kohn-Sham eigenvalues and eigenfunctions.
  Solving real generalised eigenvalue problem by standard LAPACK (fast)
  Determining occupation numbers for Kohn-Sham eigenstates.
  | Chemical potential (Fermi level) in eV                 : -.58147688E+01
  | Error in electron count due to remaining E_F inaccuracy: 0.00000000E+00
  | Maximum occupation number of highest empty state:  0.00E+00

  Highest occupied state (VBM) at     -8.20417198 eV
  | Occupation number:      2.00000000

  Lowest unoccupied state (CBM) at    -3.42536560 eV
  | Occupation number:      0.00000000

  Overall HOMO-LUMO gap:      4.77880638 eV.

  Total energy components:
  | Sum of eigenvalues            :          -0.60299556 Ha         -16.40834396 eV
  | XC energy correction          :           0.34591871 Ha           9.41292709 eV
  | XC potential correction       :           0.00000000 Ha           0.00000000 eV
  | Free-atom electrostatic energy:          -0.56539178 Ha         -15.38509304 eV
  | Hartree energy correction     :          -0.00565980 Ha          -0.15401109 eV
  | Entropy correction            :           0.00000000 Ha           0.00000000 eV
  | ---------------------------
  | Total energy                  :          -0.82812843 Ha         -22.53452099 eV
  | Total energy, T -> 0          :          -0.82812843 Ha         -22.53452099 eV  <-- do not rely on this value for anything but (periodic) metals
  | Electronic free energy        :          -0.82812843 Ha         -22.53452099 eV

  Derived energy quantities:
  | Kinetic energy                :           0.80372074 Ha          21.87035406 eV
  | Electrostatic energy          :          -1.28593045 Ha         -34.99194796 eV
  | Energy correction for multipole
  | error in Hartree potential    :          -0.00000053 Ha          -0.00001449 eV
  | Sum of eigenvalues per atom                           :          -8.20417198 eV
  | Total energy (T->0) per atom                          :         -11.26726050 eV  <-- do not rely on this value for anything but (periodic) metals
  | Electronic free energy per atom                       :         -11.26726050 eV

  Self-consistency convergence accuracy:
  | Change of charge density      : 0.3341E-01
  | Change of sum of eigenvalues  : 0.1881E+00 eV
  | Change of total energy        : -.4036E+00 eV

  End self-consistency iteration #     2       :  max(cpu_time)    wall_clock(cpu1)
  | Time for this iteration                    :        0.748 s           0.746 s
  | Charge density update                      :        0.136 s           0.135 s
  | Density mixing                             :        0.004 s           0.004 s
  | Hartree multipole update                   :        0.068 s           0.065 s
  | Hartree multipole summation                :        0.260 s           0.258 s
  | Integration                                :        0.272 s           0.270 s
  | Fock matrix evaluation                     :        0.012 s           0.012 s
  | Solution of K.-S. eqns.                    :        0.004 s           0.001 s
  | Total energy evaluation                    :        0.000 s           0.000 s
------------------------------------------------------------

------------------------------------------------------------
          Begin self-consistency iteration #    3

  Date     :  20140812, Time     :  112322.896
------------------------------------------------------------
  Evaluating new KS density.
  Integration grid: deviation in total charge (<rho> - N_e) =   3.552714E-15
  Pulay mixing of updated and previous charge densities.

  Evaluating partitioned Hartree potential by multipole expansion.
  | Analytical far-field extrapolation by fixed multipoles:
  | Hartree multipole sum: apparent total charge =  -0.965312E-07
  Summing up the Hartree potential.
  Time summed over all CPUs for potential: real work        1.023 s, elapsed        1.035 s
  | RMS charge density error from multipole expansion :   0.982204E-04

  Integrating Hamiltonian matrix: batch-based integration.
  Time summed over all CPUs for integration: real work        1.074 s, elapsed        1.105 s
  Evaluating the exchange matrix ... 

  Updating Kohn-Sham eigenvalues, eigenvectors, occupation numbers, and Fermi level.
  Solving generalized eigenproblem
  Updating Kohn-Sham eigenvalues and eigenfunctions.
  Solving real generalised eigenvalue problem by standard LAPACK (fast)
  Determining occupation numbers for Kohn-Sham eigenstates.
  | Chemical potential (Fermi level) in eV                 : -.62332755E+01
  | Error in electron count due to remaining E_F inaccuracy: 0.00000000E+00
  | Maximum occupation number of highest empty state:  0.00E+00

  Highest occupied state (VBM) at     -8.63653597 eV
  | Occupation number:      2.00000000

  Lowest unoccupied state (CBM) at    -3.83001506 eV
  | Occupation number:      0.00000000

  Overall HOMO-LUMO gap:      4.80652092 eV.

  Total energy components:
  | Sum of eigenvalues            :          -0.63477373 Ha         -17.27307194 eV
  | XC energy correction          :           0.33576515 Ha           9.13663455 eV
  | XC potential correction       :           0.00000000 Ha           0.00000000 eV
  | Free-atom electrostatic energy:          -0.56539178 Ha         -15.38509304 eV
  | Hartree energy correction     :           0.05205584 Ha           1.41651135 eV
  | Entropy correction            :           0.00000000 Ha           0.00000000 eV
  | ---------------------------
  | Total energy                  :          -0.81234452 Ha         -22.10501909 eV
  | Total energy, T -> 0          :          -0.81234452 Ha         -22.10501909 eV  <-- do not rely on this value for anything but (periodic) metals
  | Electronic free energy        :          -0.81234452 Ha         -22.10501909 eV

  Derived energy quantities:
  | Kinetic energy                :           0.67462279 Ha          18.35742010 eV
  | Electrostatic energy          :          -1.15120216 Ha         -31.32580464 eV
  | Energy correction for multipole
  | error in Hartree potential    :          -0.00001360 Ha          -0.00037015 eV
  | Sum of eigenvalues per atom                           :          -8.63653597 eV
  | Total energy (T->0) per atom                          :         -11.05250954 eV  <-- do not rely on this value for anything but (periodic) metals
  | Electronic free energy per atom                       :         -11.05250954 eV

  Self-consistency convergence accuracy:
  | Change of charge density      : 0.4262E-01
  | Change of sum of eigenvalues  : -.8647E+00 eV
  | Change of total energy        : 0.4295E+00 eV

  End self-consistency iteration #     3       :  max(cpu_time)    wall_clock(cpu1)
  | Time for this iteration                    :        0.760 s           0.760 s
  | Charge density update                      :        0.136 s           0.134 s
  | Density mixing                             :        0.008 s           0.008 s
  | Hartree multipole update                   :        0.068 s           0.067 s
  | Hartree multipole summation                :        0.260 s           0.260 s
  | Integration                                :        0.276 s           0.276 s
  | Fock matrix evaluation                     :        0.012 s           0.013 s
  | Solution of K.-S. eqns.                    :        0.004 s           0.001 s
  | Total energy evaluation                    :        0.000 s           0.001 s
------------------------------------------------------------

------------------------------------------------------------
          Begin self-consistency iteration #    4

  Date     :  20140812, Time     :  112323.656
------------------------------------------------------------
  Evaluating new KS density.
  Integration grid: deviation in total charge (<rho> - N_e) =   1.776357E-15
  Pulay mixing of updated and previous charge densities.

  Evaluating partitioned Hartree potential by multipole expansion.
  | Analytical far-field extrapolation by fixed multipoles:
  | Hartree multipole sum: apparent total charge =  -0.955758E-07
  Summing up the Hartree potential.
  Time summed over all CPUs for potential: real work        1.024 s, elapsed        1.028 s
  | RMS charge density error from multipole expansion :   0.103720E-03

  Integrating Hamiltonian matrix: batch-based integration.
  Time summed over all CPUs for integration: real work        1.064 s, elapsed        1.087 s
  Evaluating the exchange matrix ... 

  Updating Kohn-Sham eigenvalues, eigenvectors, occupation numbers, and Fermi level.
  Solving generalized eigenproblem
  Updating Kohn-Sham eigenvalues and eigenfunctions.
  Solving real generalised eigenvalue problem by standard LAPACK (fast)
  Determining occupation numbers for Kohn-Sham eigenstates.
  | Chemical potential (Fermi level) in eV                 : -.62560019E+01
  | Error in electron count due to remaining E_F inaccuracy: 0.00000000E+00
  | Maximum occupation number of highest empty state:  0.00E+00

  Highest occupied state (VBM) at     -8.65994883 eV
  | Occupation number:      2.00000000

  Lowest unoccupied state (CBM) at    -3.85205493 eV
  | Occupation number:      0.00000000

  Overall HOMO-LUMO gap:      4.80789390 eV.

  Total energy components:
  | Sum of eigenvalues            :          -0.63649454 Ha         -17.31989765 eV
  | XC energy correction          :           0.33309572 Ha           9.06399570 eV
  | XC potential correction       :           0.00000000 Ha           0.00000000 eV
  | Free-atom electrostatic energy:          -0.56539178 Ha         -15.38509304 eV
  | Hartree energy correction     :           0.05548356 Ha           1.50978448 eV
  | Entropy correction            :           0.00000000 Ha           0.00000000 eV
  | ---------------------------
  | Total energy                  :          -0.81330704 Ha         -22.13121051 eV
  | Total energy, T -> 0          :          -0.81330704 Ha         -22.13121051 eV  <-- do not rely on this value for anything but (periodic) metals
  | Electronic free energy        :          -0.81330704 Ha         -22.13121051 eV

  Derived energy quantities:
  | Kinetic energy                :           0.66459990 Ha          18.08468337 eV
  | Electrostatic energy          :          -1.14481122 Ha         -31.15189819 eV
  | Energy correction for multipole
  | error in Hartree potential    :          -0.00001498 Ha          -0.00040758 eV
  | Sum of eigenvalues per atom                           :          -8.65994883 eV
  | Total energy (T->0) per atom                          :         -11.06560526 eV  <-- do not rely on this value for anything but (periodic) metals
  | Electronic free energy per atom                       :         -11.06560526 eV

  Self-consistency convergence accuracy:
  | Change of charge density      : 0.1295E-02
  | Change of sum of eigenvalues  : -.4683E-01 eV
  | Change of total energy        : -.2619E-01 eV

  End self-consistency iteration #     4       :  max(cpu_time)    wall_clock(cpu1)
  | Time for this iteration                    :        0.764 s           0.763 s
  | Charge density update                      :        0.140 s           0.137 s
  | Density mixing                             :        0.012 s           0.012 s
  | Hartree multipole update                   :        0.068 s           0.067 s
  | Hartree multipole summation                :        0.260 s           0.259 s
  | Integration                                :        0.272 s           0.271 s
  | Fock matrix evaluation                     :        0.016 s           0.015 s
  | Solution of K.-S. eqns.                    :        0.004 s           0.001 s
  | Total energy evaluation                    :        0.000 s           0.000 s
------------------------------------------------------------

------------------------------------------------------------
          Begin self-consistency iteration #    5

  Date     :  20140812, Time     :  112324.419
------------------------------------------------------------
  Evaluating new KS density.
  Integration grid: deviation in total charge (<rho> - N_e) =  -1.332268E-15
  Pulay mixing of updated and previous charge densities.

  Evaluating partitioned Hartree potential by multipole expansion.
  | Analytical far-field extrapolation by fixed multipoles:
  | Hartree multipole sum: apparent total charge =  -0.951057E-07
  Summing up the Hartree potential.
  Time summed over all CPUs for potential: real work        1.015 s, elapsed        1.021 s
  | RMS charge density error from multipole expansion :   0.103328E-03

  Integrating Hamiltonian matrix: batch-based integration.
  Time summed over all CPUs for integration: real work        1.070 s, elapsed        1.100 s
  Evaluating the exchange matrix ... 

  Updating Kohn-Sham eigenvalues, eigenvectors, occupation numbers, and Fermi level.
  Solving generalized eigenproblem
  Updating Kohn-Sham eigenvalues and eigenfunctions.
  Solving real generalised eigenvalue problem by standard LAPACK (fast)
  Determining occupation numbers for Kohn-Sham eigenstates.
  | Chemical potential (Fermi level) in eV                 : -.62539697E+01
  | Error in electron count due to remaining E_F inaccuracy: 0.00000000E+00
  | Maximum occupation number of highest empty state:  0.00E+00

  Highest occupied state (VBM) at     -8.65790556 eV
  | Occupation number:      2.00000000

  Lowest unoccupied state (CBM) at    -3.85003376 eV
  | Occupation number:      0.00000000

  Overall HOMO-LUMO gap:      4.80787180 eV.

  Total energy components:
  | Sum of eigenvalues            :          -0.63634436 Ha         -17.31581111 eV
  | XC energy correction          :           0.33291878 Ha           9.05918096 eV
  | XC potential correction       :           0.00000000 Ha           0.00000000 eV
  | Free-atom electrostatic energy:          -0.56539178 Ha         -15.38509304 eV
  | Hartree energy correction     :           0.05528430 Ha           1.50436228 eV
  | Entropy correction            :           0.00000000 Ha           0.00000000 eV
  | ---------------------------
  | Total energy                  :          -0.81353306 Ha         -22.13736091 eV
  | Total energy, T -> 0          :          -0.81353306 Ha         -22.13736091 eV  <-- do not rely on this value for anything but (periodic) metals
  | Electronic free energy        :          -0.81353306 Ha         -22.13736091 eV

  Derived energy quantities:
  | Kinetic energy                :           0.66502759 Ha          18.09632138 eV
  | Electrostatic energy          :          -1.14564187 Ha         -31.17450133 eV
  | Energy correction for multipole
  | error in Hartree potential    :          -0.00001501 Ha          -0.00040841 eV
  | Sum of eigenvalues per atom                           :          -8.65790556 eV
  | Total energy (T->0) per atom                          :         -11.06868045 eV  <-- do not rely on this value for anything but (periodic) metals
  | Electronic free energy per atom                       :         -11.06868045 eV

  Self-consistency convergence accuracy:
  | Change of charge density      : 0.3776E-03
  | Change of sum of eigenvalues  : 0.4087E-02 eV
  | Change of total energy        : -.6150E-02 eV

  End self-consistency iteration #     5       :  max(cpu_time)    wall_clock(cpu1)
  | Time for this iteration                    :        0.768 s           0.765 s
  | Charge density update                      :        0.140 s           0.137 s
  | Density mixing                             :        0.016 s           0.017 s
  | Hartree multipole update                   :        0.068 s           0.066 s
  | Hartree multipole summation                :        0.256 s           0.256 s
  | Integration                                :        0.276 s           0.275 s
  | Fock matrix evaluation                     :        0.012 s           0.012 s
  | Solution of K.-S. eqns.                    :        0.004 s           0.002 s
  | Total energy evaluation                    :        0.000 s           0.000 s
------------------------------------------------------------

------------------------------------------------------------
          Begin self-consistency iteration #    6

  Date     :  20140812, Time     :  112325.184
------------------------------------------------------------
  Evaluating new KS density.
  Integration grid: deviation in total charge (<rho> - N_e) =   2.220446E-15
  Pulay mixing of updated and previous charge densities.

  Evaluating partitioned Hartree potential by multipole expansion.
  | Analytical far-field extrapolation by fixed multipoles:
  | Hartree multipole sum: apparent total charge =  -0.950544E-07
  Summing up the Hartree potential.
  Time summed over all CPUs for potential: real work        1.035 s, elapsed        1.053 s
  | RMS charge density error from multipole expansion :   0.103038E-03

  Integrating Hamiltonian matrix: batch-based integration.
  Time summed over all CPUs for integration: real work        1.057 s, elapsed        1.076 s
  Evaluating the exchange matrix ... 

  Updating Kohn-Sham eigenvalues, eigenvectors, occupation numbers, and Fermi level.
  Solving generalized eigenproblem
  Updating Kohn-Sham eigenvalues and eigenfunctions.
  Solving real generalised eigenvalue problem by standard LAPACK (fast)
  Determining occupation numbers for Kohn-Sham eigenstates.
  | Chemical potential (Fermi level) in eV                 : -.62526916E+01
  | Error in electron count due to remaining E_F inaccuracy: 0.00000000E+00
  | Maximum occupation number of highest empty state:  0.00E+00

  Highest occupied state (VBM) at     -8.65660092 eV
  | Occupation number:      2.00000000

  Lowest unoccupied state (CBM) at    -3.84878238 eV
  | Occupation number:      0.00000000

  Overall HOMO-LUMO gap:      4.80781855 eV.

  Total energy components:
  | Sum of eigenvalues            :          -0.63624847 Ha         -17.31320185 eV
  | XC energy correction          :           0.33295633 Ha           9.06020275 eV
  | XC potential correction       :           0.00000000 Ha           0.00000000 eV
  | Free-atom electrostatic energy:          -0.56539178 Ha         -15.38509304 eV
  | Hartree energy correction     :           0.05511124 Ha           1.49965327 eV
  | Entropy correction            :           0.00000000 Ha           0.00000000 eV
  | ---------------------------
  | Total energy                  :          -0.81357267 Ha         -22.13843886 eV
  | Total energy, T -> 0          :          -0.81357267 Ha         -22.13843886 eV  <-- do not rely on this value for anything but (periodic) metals
  | Electronic free energy        :          -0.81357267 Ha         -22.13843886 eV

  Derived energy quantities:
  | Kinetic energy                :           0.66543020 Ha          18.10727702 eV
  | Electrostatic energy          :          -1.14604654 Ha         -31.18551313 eV
  | Energy correction for multipole
  | error in Hartree potential    :          -0.00001496 Ha          -0.00040699 eV
  | Sum of eigenvalues per atom                           :          -8.65660092 eV
  | Total energy (T->0) per atom                          :         -11.06921943 eV  <-- do not rely on this value for anything but (periodic) metals
  | Electronic free energy per atom                       :         -11.06921943 eV

  Self-consistency convergence accuracy:
  | Change of charge density      : 0.1098E-03
  | Change of sum of eigenvalues  : 0.2609E-02 eV
  | Change of total energy        : -.1078E-02 eV

  End self-consistency iteration #     6       :  max(cpu_time)    wall_clock(cpu1)
  | Time for this iteration                    :        0.772 s           0.770 s
  | Charge density update                      :        0.136 s           0.136 s
  | Density mixing                             :        0.020 s           0.020 s
  | Hartree multipole update                   :        0.068 s           0.066 s
  | Hartree multipole summation                :        0.264 s           0.265 s
  | Integration                                :        0.272 s           0.269 s
  | Fock matrix evaluation                     :        0.016 s           0.013 s
  | Solution of K.-S. eqns.                    :        0.004 s           0.001 s
  | Total energy evaluation                    :        0.000 s           0.000 s
------------------------------------------------------------

------------------------------------------------------------
          Begin self-consistency iteration #    7

  Date     :  20140812, Time     :  112325.955
------------------------------------------------------------
  Evaluating new KS density.
  Integration grid: deviation in total charge (<rho> - N_e) =  -3.996803E-15
  Pulay mixing of updated and previous charge densities.

  Evaluating partitioned Hartree potential by multipole expansion.
  | Analytical far-field extrapolation by fixed multipoles:
  | Hartree multipole sum: apparent total charge =  -0.950521E-07
  Summing up the Hartree potential.
  Time summed over all CPUs for potential: real work        1.048 s, elapsed        1.072 s
  | RMS charge density error from multipole expansion :   0.103049E-03

  Integrating Hamiltonian matrix: batch-based integration.
  Time summed over all CPUs for integration: real work        1.081 s, elapsed        1.115 s
  Evaluating the exchange matrix ... 

  Updating Kohn-Sham eigenvalues, eigenvectors, occupation numbers, and Fermi level.
  Solving generalized eigenproblem
  Updating Kohn-Sham eigenvalues and eigenfunctions.
  Solving real generalised eigenvalue problem by standard LAPACK (fast)
  Determining occupation numbers for Kohn-Sham eigenstates.
  | Chemical potential (Fermi level) in eV                 : -.62527313E+01
  | Error in electron count due to remaining E_F inaccuracy: 0.00000000E+00
  | Maximum occupation number of highest empty state:  0.00E+00

  Highest occupied state (VBM) at     -8.65664810 eV
  | Occupation number:      2.00000000

  Lowest unoccupied state (CBM) at    -3.84881444 eV
  | Occupation number:      0.00000000

  Overall HOMO-LUMO gap:      4.80783366 eV.

  Total energy components:
  | Sum of eigenvalues            :          -0.63625194 Ha         -17.31329620 eV
  | XC energy correction          :           0.33296327 Ha           9.06039148 eV
  | XC potential correction       :           0.00000000 Ha           0.00000000 eV
  | Free-atom electrostatic energy:          -0.56539178 Ha         -15.38509304 eV
  | Hartree energy correction     :           0.05511657 Ha           1.49979830 eV
  | Entropy correction            :           0.00000000 Ha           0.00000000 eV
  | ---------------------------
  | Total energy                  :          -0.81356388 Ha         -22.13819946 eV
  | Total energy, T -> 0          :          -0.81356388 Ha         -22.13819946 eV  <-- do not rely on this value for anything but (periodic) metals
  | Electronic free energy        :          -0.81356388 Ha         -22.13819946 eV

  Derived energy quantities:
  | Kinetic energy                :           0.66543487 Ha          18.10740402 eV
  | Electrostatic energy          :          -1.14603548 Ha         -31.18521199 eV
  | Energy correction for multipole
  | error in Hartree potential    :          -0.00001496 Ha          -0.00040706 eV
  | Sum of eigenvalues per atom                           :          -8.65664810 eV
  | Total energy (T->0) per atom                          :         -11.06909973 eV  <-- do not rely on this value for anything but (periodic) metals
  | Electronic free energy per atom                       :         -11.06909973 eV

  Self-consistency convergence accuracy:
  | Change of charge density      : 0.2424E-05
  | Change of sum of eigenvalues  : -.9436E-04 eV
  | Change of total energy        : 0.2394E-03 eV

  End self-consistency iteration #     7       :  max(cpu_time)    wall_clock(cpu1)
  | Time for this iteration                    :        0.788 s           0.789 s
  | Charge density update                      :        0.136 s           0.136 s
  | Density mixing                             :        0.024 s           0.025 s
  | Hartree multipole update                   :        0.068 s           0.066 s
  | Hartree multipole summation                :        0.268 s           0.270 s
  | Integration                                :        0.280 s           0.279 s
  | Fock matrix evaluation                     :        0.012 s           0.012 s
  | Solution of K.-S. eqns.                    :        0.000 s           0.001 s
  | Total energy evaluation                    :        0.000 s           0.000 s
------------------------------------------------------------

------------------------------------------------------------
          Begin self-consistency iteration #    8

  Date     :  20140812, Time     :  112326.745
------------------------------------------------------------
  Evaluating new KS density.
  Integration grid: deviation in total charge (<rho> - N_e) =   1.509903E-14
  Pulay mixing of updated and previous charge densities.

  Evaluating partitioned Hartree potential by multipole expansion.
  | Analytical far-field extrapolation by fixed multipoles:
  | Hartree multipole sum: apparent total charge =  -0.950516E-07
  Summing up the Hartree potential.
  Time summed over all CPUs for potential: real work        1.024 s, elapsed        1.036 s
  | RMS charge density error from multipole expansion :   0.103049E-03

  Integrating Hamiltonian matrix: batch-based integration.
  Time summed over all CPUs for integration: real work        1.074 s, elapsed        1.098 s
  Evaluating the exchange matrix ... 

  Updating Kohn-Sham eigenvalues, eigenvectors, occupation numbers, and Fermi level.
  Solving generalized eigenproblem
  Updating Kohn-Sham eigenvalues and eigenfunctions.
  Solving real generalised eigenvalue problem by standard LAPACK (fast)
  Determining occupation numbers for Kohn-Sham eigenstates.
  | Chemical potential (Fermi level) in eV                 : -.62527281E+01
  | Error in electron count due to remaining E_F inaccuracy: 0.00000000E+00
  | Maximum occupation number of highest empty state:  0.00E+00

  Highest occupied state (VBM) at     -8.65664467 eV
  | Occupation number:      2.00000000

  Lowest unoccupied state (CBM) at    -3.84881163 eV
  | Occupation number:      0.00000000

  Overall HOMO-LUMO gap:      4.80783304 eV.

  Total energy components:
  | Sum of eigenvalues            :          -0.63625169 Ha         -17.31328933 eV
  | XC energy correction          :           0.33296284 Ha           9.06037994 eV
  | XC potential correction       :           0.00000000 Ha           0.00000000 eV
  | Free-atom electrostatic energy:          -0.56539178 Ha         -15.38509304 eV
  | Hartree energy correction     :           0.05511637 Ha           1.49979275 eV
  | Entropy correction            :           0.00000000 Ha           0.00000000 eV
  | ---------------------------
  | Total energy                  :          -0.81356425 Ha         -22.13820968 eV
  | Total energy, T -> 0          :          -0.81356425 Ha         -22.13820968 eV  <-- do not rely on this value for anything but (periodic) metals
  | Electronic free energy        :          -0.81356425 Ha         -22.13820968 eV

  Derived energy quantities:
  | Kinetic energy                :           0.66543460 Ha          18.10739685 eV
  | Electrostatic energy          :          -1.14603601 Ha         -31.18522660 eV
  | Energy correction for multipole
  | error in Hartree potential    :          -0.00001496 Ha          -0.00040706 eV
  | Sum of eigenvalues per atom                           :          -8.65664467 eV
  | Total energy (T->0) per atom                          :         -11.06910484 eV  <-- do not rely on this value for anything but (periodic) metals
  | Electronic free energy per atom                       :         -11.06910484 eV

  Self-consistency convergence accuracy:
  | Change of charge density      : 0.2622E-06
  | Change of sum of eigenvalues  : 0.6869E-05 eV
  | Change of total energy        : -.1022E-04 eV

  End self-consistency iteration #     8       :  max(cpu_time)    wall_clock(cpu1)
  | Time for this iteration                    :        0.784 s           0.782 s
  | Charge density update                      :        0.136 s           0.136 s
  | Density mixing                             :        0.028 s           0.027 s
  | Hartree multipole update                   :        0.068 s           0.066 s
  | Hartree multipole summation                :        0.260 s           0.260 s
  | Integration                                :        0.276 s           0.275 s
  | Fock matrix evaluation                     :        0.016 s           0.015 s
  | Solution of K.-S. eqns.                    :        0.004 s           0.001 s
  | Total energy evaluation                    :        0.004 s           0.000 s
------------------------------------------------------------

------------------------------------------------------------
          Begin self-consistency iteration #    9

  Date     :  20140812, Time     :  112327.527
------------------------------------------------------------
  Evaluating new KS density.
  Integration grid: deviation in total charge (<rho> - N_e) =   4.440892E-15
  Pulay mixing of updated and previous charge densities.

  Evaluating partitioned Hartree potential by multipole expansion.
  | Analytical far-field extrapolation by fixed multipoles:
  | Hartree multipole sum: apparent total charge =  -0.950516E-07
  Summing up the Hartree potential.
  Time summed over all CPUs for potential: real work        1.016 s, elapsed        1.024 s
  | RMS charge density error from multipole expansion :   0.103049E-03

  Integrating Hamiltonian matrix: batch-based integration.
  Time summed over all CPUs for integration: real work        1.095 s, elapsed        1.105 s
  Evaluating the exchange matrix ... 

  Updating Kohn-Sham eigenvalues, eigenvectors, occupation numbers, and Fermi level.
  Solving generalized eigenproblem
  Updating Kohn-Sham eigenvalues and eigenfunctions.
  Solving real generalised eigenvalue problem by standard LAPACK (fast)
  Determining occupation numbers for Kohn-Sham eigenstates.
  | Chemical potential (Fermi level) in eV                 : -.62527271E+01
  | Error in electron count due to remaining E_F inaccuracy: 0.00000000E+00
  | Maximum occupation number of highest empty state:  0.00E+00

  Highest occupied state (VBM) at     -8.65664363 eV
  | Occupation number:      2.00000000

  Lowest unoccupied state (CBM) at    -3.84881056 eV
  | Occupation number:      0.00000000

  Overall HOMO-LUMO gap:      4.80783307 eV.

  Total energy components:
  | Sum of eigenvalues            :          -0.63625161 Ha         -17.31328726 eV
  | XC energy correction          :           0.33296289 Ha           9.06038127 eV
  | XC potential correction       :           0.00000000 Ha           0.00000000 eV
  | Free-atom electrostatic energy:          -0.56539178 Ha         -15.38509304 eV
  | Hartree energy correction     :           0.05511622 Ha           1.49978854 eV
  | Entropy correction            :           0.00000000 Ha           0.00000000 eV
  | ---------------------------
  | Total energy                  :          -0.81356428 Ha         -22.13821048 eV
  | Total energy, T -> 0          :          -0.81356428 Ha         -22.13821048 eV  <-- do not rely on this value for anything but (periodic) metals
  | Electronic free energy        :          -0.81356428 Ha         -22.13821048 eV

  Derived energy quantities:
  | Kinetic energy                :           0.66543495 Ha          18.10740624 eV
  | Electrostatic energy          :          -1.14603634 Ha         -31.18523545 eV
  | Energy correction for multipole
  | error in Hartree potential    :          -0.00001496 Ha          -0.00040706 eV
  | Sum of eigenvalues per atom                           :          -8.65664363 eV
  | Total energy (T->0) per atom                          :         -11.06910524 eV  <-- do not rely on this value for anything but (periodic) metals
  | Electronic free energy per atom                       :         -11.06910524 eV

  Self-consistency convergence accuracy:
  | Change of charge density      : 0.9926E-07
  | Change of sum of eigenvalues  : 0.2070E-05 eV
  | Change of total energy        : -.8016E-06 eV

  Writing Kohn-Sham eigenvalues.

  State    Occupation    Eigenvalue [Ha]    Eigenvalue [eV]
      1       2.00000          -0.318126           -8.65664
      2       0.00000          -0.141441           -3.84881
      3       0.00000           0.192767            5.24545
      4       0.00000           0.203679            5.54240
      5       0.00000           0.330527            8.99410
      6       0.00000           0.368762           10.03452
      7       0.00000           0.368762           10.03452
      8       0.00000           0.408658           11.12014
      9       0.00000           0.408658           11.12014
     10       0.00000           0.519215           14.12856
     11       0.00000           0.948208           25.80204
     12       0.00000           0.995689           27.09408
     13       0.00000           1.158726           31.53054
     14       0.00000           1.171307           31.87289
     15       0.00000           1.171307           31.87289
     16       0.00000           1.201890           32.70508
     17       0.00000           1.201890           32.70508
     18       0.00000           1.211721           32.97260
     19       0.00000           1.211721           32.97260
     20       0.00000           1.247072           33.93456
     21       0.00000           1.247072           33.93456
     22       0.00000           1.313548           35.74346
     23       0.00000           1.789556           48.69629
     24       0.00000           1.802566           49.05032
     25       0.00000           1.802566           49.05032
     26       0.00000           1.866132           50.78002
     27       0.00000           1.866132           50.78002
     28       0.00000           2.090098           56.87445
     29       0.00000           3.442021           93.66214
     30       0.00000           3.457109           94.07272
     31       0.00000           3.457109           94.07272
     32       0.00000           3.472928           94.50318
     33       0.00000           3.472928           94.50318
     34       0.00000           3.476976           94.61334
     35       0.00000           3.476976           94.61334
     36       0.00000           3.477940           94.63956
     37       0.00000           3.477940           94.63956
     38       0.00000           3.484213           94.81027
     39       0.00000           3.484213           94.81027
     40       0.00000           3.504202           95.35418
     41       0.00000           3.504202           95.35418
     42       0.00000           3.526607           95.96385
     43       0.00000           3.826009          104.11101
     44       0.00000           3.916642          106.57726
     45       0.00000           5.236068          142.48065
     46       0.00000           5.249889          142.85676
     47       0.00000           5.249889          142.85676
     48       0.00000           5.308258          144.44506
     49       0.00000           5.308258          144.44506
     50       0.00000           5.330456          145.04910
     51       0.00000           5.330456          145.04910
     52       0.00000           5.408520          147.17333
     53       0.00000           5.408520          147.17333
     54       0.00000           5.579290          151.82020
     55       0.00000           8.485359          230.89836
     56       0.00000           8.500930          231.32208
     57       0.00000           8.500930          231.32208
     58       0.00000           8.649474          235.36418
     59       0.00000           8.649474          235.36418
     60       0.00000           9.161934          249.30890
     61       0.00000          21.787591          592.87052
     62       0.00000          22.090986          601.12632

  Highest occupied state (VBM) at     -8.65664363 eV
  | Occupation number:      2.00000000

  Lowest unoccupied state (CBM) at    -3.84881056 eV
  | Occupation number:      0.00000000

  Overall HOMO-LUMO gap:      4.80783307 eV.

  Self-consistency cycle converged.

  End self-consistency iteration #     9       :  max(cpu_time)    wall_clock(cpu1)
  | Time for this iteration                    :        0.784 s           0.782 s
  | Charge density update                      :        0.140 s           0.138 s
  | Density mixing                             :        0.032 s           0.031 s
  | Hartree multipole update                   :        0.064 s           0.065 s
  | Hartree multipole summation                :        0.256 s           0.257 s
  | Integration                                :        0.276 s           0.276 s
  | Fock matrix evaluation                     :        0.012 s           0.013 s
  | Solution of K.-S. eqns.                    :        0.004 s           0.001 s
  | Total energy evaluation                    :        0.000 s           0.000 s
------------------------------------------------------------

  Energy and forces in a compact form:
  | Total energy uncorrected      :         -0.221382104839918E+02 eV
  | Total energy corrected        :         -0.221382104839918E+02 eV  <-- do not rely on this value for anything but (periodic) metals
  | Electronic free energy        :         -0.221382104839918E+02 eV

  ------------------------------------ 
  Start decomposition of the XC Energy 
  ------------------------------------ 
  Hartree-Fock part   :          0.332962892 Ha              9.060381274 eV
  ------------------------------------ 
  X Energy            :          0.332962892 Ha              9.060381274 eV
  C Energy GGA        :          0.000000000 Ha              0.000000000 eV
  Total XC Energy     :          0.332962892 Ha              9.060381274 eV
  LDA X and C from self-consistent density 
  X Energy LDA        :         -0.344522168 Ha             -9.374925191 eV
  C Energy LDA        :         -0.074783242 Ha             -2.034955562 eV
  ------------------------------------ 
  End decomposition of the XC Energy 
  ------------------------------------ 
---------------------------------------------
---------------------------------------------
 | MP2 calculation starts ...
---------------------------------------------

  | Note : Resolution of identity applied 
  | Note : Non spin-polarized system 
---------------------------------------------
  | Homo level                                        1
  | Lumo level                                        2
  | Total Number of states                           62
  | Number of k-points                                1
  | Homo-Lumo Gap                            0.17668462 Ha          4.80783307 eV
---------------------------------------------
  The ovlp_3KS matrix takes another      0 MiB x      4 procs =       0.000 GiB.


---------------------------------------------
| Sum of correlation terms 
---------------------------------------------
  | Pair state     1                    :         -3.19809822 eV         -3.19809822 eV

---------------------------------------------
| Correlation energy spectrum 
---------------------------------------------
  |     2    :         -0.14144119        -0.09615849
  |     3    :          0.19276672        -0.00160759
  |     4    :          0.20367939        -0.00548034
  |     5    :          0.33052719        -0.00134657
  |     6    :          0.36876197        -0.00103032
  |     7    :          0.36876197        -0.00103032
  |     8    :          0.40865780        -0.00076542
  |     9    :          0.40865780        -0.00076542
  |    10    :          0.51921494        -0.00071033
  |    11    :          0.94820754        -0.00117556
  |    12    :          0.99568928        -0.00243919
  |    13    :          1.15872611        -0.00016843
  |    14    :          1.17130724        -0.00011712
  |    15    :          1.17130724        -0.00011712
  |    16    :          1.20188952        -0.00009518
  |    17    :          1.20188952        -0.00009518
  |    18    :          1.21172063        -0.00009097
  |    19    :          1.21172063        -0.00009097
  |    20    :          1.24707215        -0.00010247
  |    21    :          1.24707215        -0.00010247
  |    22    :          1.31354783        -0.00016162
  |    23    :          1.78955580        -0.00045772
  |    24    :          1.80256608        -0.00043074
  |    25    :          1.80256608        -0.00043074
  |    26    :          1.86613155        -0.00040193
  |    27    :          1.86613155        -0.00040193
  |    28    :          2.09009769        -0.00031762
  |    29    :          3.44202050        -0.00002775
  |    30    :          3.45710903        -0.00002158
  |    31    :          3.45710903        -0.00002158
  |    32    :          3.47292821        -0.00001992
  |    33    :          3.47292821        -0.00001992
  |    34    :          3.47697632        -0.00001872
  |    35    :          3.47697632        -0.00001872
  |    36    :          3.47793989        -0.00001866
  |    37    :          3.47793989        -0.00001866
  |    38    :          3.48421324        -0.00001948
  |    39    :          3.48421324        -0.00001948
  |    40    :          3.50420168        -0.00002017
  |    41    :          3.50420168        -0.00002017
  |    42    :          3.52660667        -0.00002693
  |    43    :          3.82600936        -0.00024293
  |    44    :          3.91664217        -0.00027672
  |    45    :          5.23606757        -0.00003702
  |    46    :          5.24988942        -0.00003620
  |    47    :          5.24988942        -0.00003620
  |    48    :          5.30825840        -0.00003518
  |    49    :          5.30825841        -0.00003518
  |    50    :          5.33045636        -0.00003501
  |    51    :          5.33045638        -0.00003501
  |    52    :          5.40852046        -0.00003489
  |    53    :          5.40852046        -0.00003489
  |    54    :          5.57928989        -0.00003504
  |    55    :          8.48535887        -0.00004424
  |    56    :          8.50093019        -0.00004423
  |    57    :          8.50093019        -0.00004423
  |    58    :          8.64947447        -0.00004206
  |    59    :          8.64947447        -0.00004206
  |    60    :          9.16193351        -0.00003627
  |    61    :         21.78759100        -0.00000866
  |    62    :         22.09098607        -0.00000841
---------------------------------------------
 
 
 
          ---------------------------------------------
          | MP2 calculation comes to finish ...  
 
          ---------------------------------------------
          | Total time for calculating MP2 correction              :        0.000 s

          ---------------------------------------------

---------------------------------------------
  | HF Energy                      :         -0.81356428 Ha        -22.13821048 eV
  | MP2 correction                 :         -0.11752795 Ha         -3.19809822 eV
---------------------------------------------
  | Total Energy + MP2 correction  :         -0.93109223 Ha        -25.33630871 eV
---------------------------------------------

------------------------------------------------------------------------------
  Final output of selected total energy values:

  The following output summarizes some interesting total energy values
  at the end of a run (AFTER all relaxation, molecular dynamics, etc.).

  | Total energy of the DFT / Hartree-Fock s.c.f. calculation      :            -22.138210484 eV
  | Final zero-broadening corrected energy (caution - metals only) :            -22.138210484 eV
  | Total energy after the post-s.c.f. correlation calculation     :            -25.336308707 eV
  | For reference only, the value of 1 Hartree used in FHI-aims is :             27.211384500 eV

  Before relying on these values, please be sure to understand exactly which
  total energy value is referred to by a given number. Different objects may
  all carry the same name 'total energy'. Definitions:

  Total energy of the DFT / Hartree-Fock s.c.f. calculation:
  | Note that this energy does not include ANY quantities calculated after the
  | s.c.f. cycle, in particular not ANY RPA, MP2, etc. many-body perturbation terms.

  Final zero-broadening corrected energy:
  | For metallic systems only, a broadening of the occupation numbers at the Fermi
  | level can be extrapolated back to zero broadening by an electron-gas inspired
  | formula. For all systems that are not real metals, this value can be
  | meaningless and should be avoided.

  Total energy of the post-s.c.f. correlation calculation        :
  | The actual meaning of this energy depends on the setting for the 'total_energy_method'
  | keyword (MP2, RPA, rPT2, etc). If not sure, compare to the results listed above.

------------------------------------------------------------------------------

  Methods described in the following list of references were used in this FHI-aims run.
  If you publish the results, please make sure to cite these reference if they apply.
  FHI-aims is an academic code, and for our developers (often, Ph.D. students
  and postdocs), scientific credit in the community is essential.
  Thank you for helping us!

  For any use of FHI-aims, please cite:

    Volker Blum, Ralf Gehrke, Felix Hanke, Paula Havu, Ville Havu,
    Xinguo Ren, Karsten Reuter, and Matthias Scheffler,
    "Ab initio molecular simulations with numeric atom-centered orbitals"
    Computer Physics Communications 180, 2175-2196 (2009).
    http://dx.doi.org/10.1016/j.cpc.2009.06.022

  For Hartree-Fock, hybrid functionals, or many-body perturbation theory used in your run, please cite:

    Xinguo Ren, Patrick Rinke, Volker Blum, Juergen Wieferink, Alex Tkatchenko,
    Andrea Sanfilippo, Karsten Reuter, and Matthias Scheffler,
    "Resolution-of-identity approach to Hartree-Fock, hybrid density functionals,
     RPA, MP2, and GW with numeric atom-centered orbital basis functions"
    New Journal of Physics 14, 053020 (2012).
    http://dx.doi.org/10.1088/1367-2630/14/5/053020

  For the NAO-VCC-nZ basis sets used in this calculation, please cite:

    Igor Ying Zhang, Xinguo Ren, Patrick Rinke, Volker Blum, and Matthias Scheffler,
    "Numeric atom-centered-orbital basis sets with valence-correlation consistency from H to Ar"
    New Journal of Physics 15, 123033 (2013).
    http://dx.doi.org/10.1088/1367-2630/15/12/123033

  For the real-space grid partitioning and parallelization used in this calculation, please cite:

    Ville Havu, Volker Blum, Paula Havu, and Matthias Scheffler,
    "Efficient O(N) integration for all-electron electronic
    structure calculation using numerically tabulated basis functions"
    Journal of Computational Physics 228, 8367-8379 (2009).
    http://dx.doi.org/10.1016/j.jcp.2009.08.008

  Of course, there are many other important community references, e.g., those cited in the
  above references. Our list is limited to references that describe implementations in the FHI-aims
  code. The reason is purely practical (length of this list) - please credit others as well.

------------------------------------------------------------
          Leaving FHI-aims.
          Date     :  20140812, Time     :  112328.341

          Computational steps:
          | Number of self-consistency cycles          :            9

          Detailed time accounting                     :  max(cpu_time)    wall_clock(cpu1)
          | Total time                                 :       31.646 s          31.697 s
          | Preparation time                           :        0.180 s           0.198 s
          | Grid partitioning                          :        0.224 s           0.222 s
          | Preloading free-atom quantities on grid    :        0.068 s           0.067 s
          | Free-atom superposition energy             :        0.032 s           0.035 s
          | Total time for integrations                :        2.964 s           2.954 s
          | Product basis setup: Total time            :        0.000 s           0.000 s
          | Product basis: | 3-center integrations     :       23.165 s          23.184 s
          | Product basis: | 2-center integrations     :        0.252 s           0.252 s
          | Product basis: | 2-center linear algebra   :        0.088 s           0.085 s
          | Product basis: | 3-center x 2-center       :        0.024 s           0.025 s
          | Total time evaluating exchange matrix      :        0.120 s           0.117 s
          | Transforming ovlp_3fn to ovlp_3KS          :        0.008 s           0.010 s
          | Total time for solution of K.-S. equations :        0.036 s           0.014 s
          | Total time for density update              :        1.240 s           1.228 s
          | Total time for mixing                      :        0.148 s           0.147 s
          | Total time for Hartree multipole update    :        0.604 s           0.592 s
          | Total time for Hartree multipole sum       :        2.340 s           2.342 s
          | Total time for total energy evaluation     :        0.004 s           0.002 s

          Have a nice day.
------------------------------------------------------------
