  MPI-parallelism will be employed.
------------------------------------------------------------
          Invoking FHI-aims ...
          Version 072414
          Compiled on 2014/08/06 at 00:00:04 on host theobook58.

          When using FHI-aims, please cite the following reference:

          Volker Blum, Ralf Gehrke, Felix Hanke, Paula Havu,
          Ville Havu, Xinguo Ren, Karsten Reuter, and Matthias Scheffler,
          'Ab Initio Molecular Simulations with Numeric Atom-Centered Orbitals: FHI-aims',
          Computer Physics Communications 180, 2175-2196 (2009)

          For any questions about FHI-aims, please visit the aimsclub website
          with its forums and wiki. Contributions to both the forums and the
          wiki are warmly encouraged - they are for you, and everyone is welcome there.

------------------------------------------------------------

  Date     :  20140812, Time     :  112224.597
  Time zero on CPU 1             :   0.160010000000000E-01  s.
  Internal wall clock time zero  :           177074544.597  s.

  Using        4 parallel tasks.
  Task        0 on host theobook58 reporting.
  Task        1 on host theobook58 reporting.
  Task        2 on host theobook58 reporting.
  Task        3 on host theobook58 reporting.

  Performing system and environment tests:
  | Environment variable OMP_NUM_THREADS correctly set to 1.
  | Stacksize not measured: no C compiler
  | Checking for scalapack...
  | No scalapack compiled in.

  Obtaining array dimensions for all initial allocations:
  
  -----------------------------------------------------------------------
  Parsing control.in (first pass over file, find array dimensions only).
  The contents of control.in will be repeated verbatim below
  unless switched off by setting 'verbatim_writeout .false.' .
  in the first line of control.in .
  -----------------------------------------------------------------------
  
  xc                      hf
  total_energy_method     mp2
  relativistic            none
  occupation_type         integer 0.0001
  mixer                   pulay
  n_max_pulay             10
  charge_mix_param        0.6
  sc_iter_limit           600
  sc_accuracy_rho         1E-6
  sc_accuracy_eev         1E-4
  sc_accuracy_etot        1E-6
  override_illconditioning .true.
  charge                  0
  ################################################################################
  #
  #  FHI-aims code project
  # Igor Ying Zhang and Xinguo Ren, Fritz Haber Institute Berlin, 2012
  #
  #  Suggested "NAO-VCC-4Z" defaults for H atom (to be pasted into control.in file)
  #
  #  Please cite:
  #
  #  Igor Ying Zhang, Xinguo Ren, Patrick Rinke, Volker Blum, and Matthias Scheffler,
  #  "Numeric atom-centered-orbital basis sets with valence-correlation consistency from H to Ar"
  #  New Journal of Physics 15, 123033 (2013).
  #  http://dx.doi.org/10.1088/1367-2630/15/12/123033
  #
  ################################################################################
    species        H
  #     set basis set reference for FHI-aims output
      cite_reference NAO-VCC-2013
  #     global species definitions
      nucleus             1
      mass                1.00794
  #
      l_hartree           6
  #
      cut_pot             4.0  2.0  1.0
      basis_dep_cutoff    0e-4
  #
      radial_base         24 7.0
  radial_multiplier               6
      angular_grids       specified
        division   0.1930   50
        division   0.3175  110
        division   0.4293  194
        division   0.5066  302
        division   0.5626  434
        division   0.5922  590
  #      division   0.6227  974
  #      division   0.6868 1202
        outer_grid  770
  #      outer_grid  434
  ################################################################################
  #
  #  Definition of "minimal" basis
  #
  ################################################################################
  #     valence basis states
      valence      1  s   1.
  #     ion occupancy
      ion_occ      1  s   0.5
  ################################################################################
  
  
   basis_acc              1e-04
  #============================================
  # Optimization in      H for       NAO-VCC-4Z
  #============================================
  # (sp) correlation set
   hydro     1     s      1.15655525
   hydro     1     s      1.68684502
   hydro     1     s      2.46027686
   hydro     2     p      2.92145897
   hydro     2     p      4.14501835
   hydro     2     p      5.88102632
  # polarization set
   hydro     3     d      6.41446874
   hydro     3     d      7.67536483
   hydro     4     f     10.80870049
  # (sp) enhanced minimal set
   hydro     1     s      3.58833335
  
  -----------------------------------------------------------------------
  Completed first pass over input file control.in .
  -----------------------------------------------------------------------
  
  
  -----------------------------------------------------------------------
  Parsing geometry.in (first pass over file, find array dimensions only).
  The contents of geometry.in will be repeated verbatim below
  unless switched off by setting 'verbatim_writeout .false.' .
  in the first line of geometry.in .
  -----------------------------------------------------------------------
  
  atom             0.0             0.0             0.0    H
  atom             0.0             0.0             3.2    H
  
  -----------------------------------------------------------------------
  Completed first pass over input file geometry.in .
  -----------------------------------------------------------------------
  

  Basic array size parameters:
  | Number of species                 :        1
  | Number of atoms                   :        2
  | Max. basis fn. angular momentum   :        3
  | Max. atomic/ionic basis occupied n:        1
  | Max. number of basis fn. types    :        2
  | Max. radial fns per species/type  :       10
  | Max. logarithmic grid size        :     1131
  | Max. radial integration grid size :      149
  | Max. angular integration grid size:      770
  | Max. angular grid division number :        8
  | Radial grid for Hartree potential :     1131
  | Number of spin channels           :        1

------------------------------------------------------------
          Reading file control.in.
------------------------------------------------------------
 
  Hartree-Fock calculation starts ...... 
  Attention: this version of Hartree-Fock employs an auxiliary basis. 
 
  MP2 correlation energy calculation will be started after the DFT/HF calculation.
  Non-relativistic treatment of kinetic energy.
  Occupation type: Integer occupation.
  Using pulay charge density mixing.
  Pulay mixing - number of memorized iterations:   10
  Charge density mixing - mixing parameter:     0.6000
  Maximum number of s.-c. iterations  :   600
  Convergence accuracy of self-consistent charge density: 0.1000E-05
  Convergence accuracy of sum of eigenvalues: 0.1000E-03
  Convergence accuracy of total energy: 0.1000E-05
  override_illconditioning: Explicitly overriding any built-in checks for an ill-conditioned overlap matrix.
  *** WARNING: If you use this flag, you should really know what you are doing.
  *** DO NOT keep this flag set by default in all your control.in files.
  Charge =   0.000000E+00: Neutral system requested explicitly.
 
  Reading configuration options for species H                   .
  | Found nuclear charge :   1.0000
  | Found atomic mass :    1.00794000000000      amu
  | Found l_max for Hartree potential  :   6
  | Found cutoff potl. onset [A], width [A], scale factor :    4.00000    2.00000    1.00000
  | Threshold for basis-dependent cutoff potential is   0.000000E+00
  | Found data for basic radial integration grid :    24 points, outermost radius =    7.000 A
  | Found multiplier for basic radial grid :   6
  | Found angular grid specification: user-specified.
  | Specified grid contains     7 separate shells.
  | Check grid settings after all constraints further below.
  | Found free-atom valence shell :  1 s   1.000
  | No ionic wave fns used. Skipping ion_occ.
  | Found basis singularity cutoff : 0.1000E-03
  | Found hydrogenic basis function :  1 s   1.157
  | Found hydrogenic basis function :  1 s   1.687
  | Found hydrogenic basis function :  1 s   2.460
  | Found hydrogenic basis function :  2 p   2.921
  | Found hydrogenic basis function :  2 p   4.145
  | Found hydrogenic basis function :  2 p   5.881
  | Found hydrogenic basis function :  3 d   6.414
  | Found hydrogenic basis function :  3 d   7.675
  | Found hydrogenic basis function :  4 f  10.809
  | Found hydrogenic basis function :  1 s   3.588
  Species H                   : Missing cutoff potential type.
  Defaulting to exp(1/x)/(1-x)^2 type cutoff potential.
  Species H : No 'logarithmic' tag. Using default grid for free atom:
  | Default logarithmic grid data [bohr] : 0.1000E-03 0.1000E+03 0.1012E+01
  Species H                   : Using default innermost maximum threshold i_radial=  2 for radial functions.
  Species H                   : Default cutoff onset for free atom density etc. is infinite
  since the product basis is used (hybrid functionals, Hartree-Fock, GW etc.).
  Species H                   : Basic radial grid will be enhanced according to radial_multiplier =   6, to contain   149 grid points.
 
  Finished reading input file 'control.in'. Consistency checks are next.
 
  Species H: Using default value for prodbas_acc =   1.000000E-02.
  Species H: Using default value max_l_prodbas =     5.
  Target number of points in a grid batch is not set. Defaulting to  100
  Method for grid partitioning is not set. Defaulting to parallel hash+maxmin partitioning.
  Batch size limit is not set. Defaulting to    200
  By default, will store active basis functions for each batch.
  If in need of memory, prune_basis_once .false. can be used to disable this option.
  communication_type for Hartree potential was not specified.
  Defaulting to calc_hartree .
  Pulay mixer: Number of initial linear mixing iterations not set.
  Defaulting to    0 iterations.
  Work space size for distributed Hartree potential not set.
  Defaulting to   0.200000E+03 MB.
  Algorithm-dependent basis array size parameters:
  | n_max_pulay                         :       10
  Calculation of forces was not defined in control.in. No forces will be calculated.
  Geometry relaxation not requested: no relaxation will be performed.
  No accuracy limit for integral partition fn. given. Defaulting to 0.1000E-14.
  No threshold value for u(r) in integrations given. Defaulting to 0.1000E-05.
  No accuracy for occupation numbers given. Defaulting to 0.1000E-07.
  No threshold value for occupation numbers given. Defaulting to 0.0000E+00.
  No accuracy for fermi level given. Defaulting to 0.1000E-19.
  Maximum # of iterations to find E_F not set. Defaulting to  200.
  Preferred method for the eigenvalue solver ('KS_method') not specified in 'control.in'.
  Calling blacs routine to test compilation state
  The best choice would be 'elpa', but your version of FHI-aims is compiled without scalapack support.
  Defaulting to 'lapack_fast' instead (serial solution, time will not improve with more CPUs).
  Will not use alltoall communication since running on < 1024 CPUs.
  Threshold for basis singularities not set.
  Default threshold for basis singularities: 0.1000E-04
  partition_type (choice of integration weights) for integrals was not specified.
  | Using a version of the partition function of Stratmann and coworkers ('stratmann_smoother').
  | At each grid point, the set of atoms used to build the partition table is smoothly restricted to
  | only those atoms whose free-atom density would be non-zero at that grid point.
  Partitioning for Hartree potential was not defined. Using partition_type for integrals.
  | Adjusted default value of keyword multip_moments_threshold to:       0.10000000E-11
  | This value may affect high angular momentum components of the Hartree potential in periodic systems.
  Spin handling was not defined in control.in. Defaulting to unpolarized case.
  Threshold for auxiliary basis singularities not set.
  Default threshold for auxiliary basis singularities: 0.1000E-04
  No q(lm)/r^(l+1) cutoff set for long-range Hartree potential.
  | Using default value of  0.100000E-09 .
  | Verify using the multipole_threshold keyword.
  Defaulting to new monopole extrapolation.
  Density update method: automatic selection selected.
  Default to 1D ("use_logsbt") integrations for auxiliary 2-center integrals.
  Default onset of logarithmic r-grid for SBT is-38.000000000000
  Default onset of logarithmic k-grid for SBT is-25.000000000000
  Default range of logarithmic r- and k-grid for SBT is 45.000000000000
  Default number of logarithmic r- and k-grid for SBT is  4096
------------------------------------------------------------


------------------------------------------------------------
          Reading geometry description geometry.in.
------------------------------------------------------------
  Input structure read successfully.
  The structure contains        2 atoms,  and a total of          2.000 electrons.

  Input geometry:
  | No unit cell requested.
  | Atomic structure:
  |       Atom                x [A]            y [A]            z [A]
  |    1: Species H              0.000000         0.000000         0.000000
  |    2: Species H              0.000000         0.000000         3.200000
  |

  | The smallest distance between any two atoms is         3.20000000 AA.
  |
  | The first atom of this pair is atom number                      1 .
  | The second atom of this pair is atom number                     2 .

  Number of empty states per atom not set in control.in .
  | Since you are using a method that relies on the unoccupied spectrum
  | (MP2,GW,RPA et al.), will use the full Hamiltonian size (see below)
  | as the max. possible number of states (occupied plus empty).

  Structure-dependent array size parameters: 
  | Maximum number of distinct radial functions  :       11
  | Maximum number of basis functions            :       62
  | Number of Kohn-Sham states (occupied + empty):       62
------------------------------------------------------------

------------------------------------------------------------
          Preparing all fixed parts of the calculation.
------------------------------------------------------------
  Determining machine precision:
    2.225073858507201E-308
  Setting up grids for atomic and cluster calculations.

  Creating wave function, potential, and density for free atoms.

  Species: H

  List of occupied orbitals and eigenvalues:
    n    l              occ      energy [Ha]    energy [eV]
    1    0           1.0000        -0.233457        -6.3527

  Creating fixed part of basis set: Ionic, confined, hydrogenic.
 
  H                    hydrogenic:
 
  List of hydrogenic basis orbitals: 
    n    l      effective z      eigenvalue [eV]  inner max. [A]     outer max. [A]     outer radius [A]   
    1    0         1.156555       -18.1992           0.460320           0.460320           5.243229
    1    0         1.686845       -38.7143           0.315118           0.315118           4.932336
    1    0         2.460277       -82.3547           0.215718           0.215718           3.815562
    2    1         2.921459       -29.0309           0.723605           0.723605           5.243229
    2    1         4.145018       -58.4405           0.507614           0.507614           4.813203
    2    1         5.881026      -117.6432           0.360475           0.360475           3.678162
    3    2         6.414469       -62.2013           0.741515           0.741515           4.993004
    3    2         7.675365       -89.0587           0.617279           0.617279           4.583499
    4    3        10.808700       -99.3454           0.778676           0.778676           4.696947
    1    0         3.588333      -175.1887           0.147673           0.147673           2.644120
 

  Adding cutoff potential to free-atom effective potential.
  Creating atomic-like basis functions for current effective potential.

  Species H                   :

  List of atomic basis orbitals and eigenvalues:
    n    l      energy [Ha]    energy [eV]    outer radius [A]
    1    0        -0.233418        -6.3516       5.373006

  Assembling full basis from fixed parts.
  | Species H :   atomic orbital   1 s accepted.
  | Species H :    hydro orbital   1 s accepted.
  | Species H :    hydro orbital   1 s accepted.
  | Species H :    hydro orbital   1 s accepted.
  | Species H :    hydro orbital   1 s accepted.
  | Species H :    hydro orbital   2 p accepted.
  | Species H :    hydro orbital   2 p accepted.
  | Species H :    hydro orbital   2 p accepted.
  | Species H :    hydro orbital   3 d accepted.
  | Species H :    hydro orbital   3 d accepted.
  | Species H :    hydro orbital   4 f accepted.
 
  Basis size parameters after reduction:
  | Total number of radial functions:       11
  | Total number of basis functions :       62
 
  Testing on-site integration grid accuracy.
  |  Species  Function  <phi|h_atom|phi> (log., in eV)  <phi|h_atom|phi> (rad., in eV)
           1        1                 -6.3519216712                 -6.3519215989
           1        2                  8.4716038567                  8.4716058028
           1        3                 58.3749927434                 58.3750109815
           1        4                178.9024737125                178.9026031671
           1        5                456.3642310330                456.3649721232
           1        6                 16.2415699263                 16.2415699338
           1        7                 68.2932618880                 68.2932619123
           1        8                188.3801588017                188.3801587562
           1        9                 49.9849006789                 49.9849006869
           1       10                114.3821731125                114.3821730675
           1       11                 88.0899419283                 88.0899419237

  Preparing densities etc. for the partition functions (integrals / Hartree potential).

  Preparations completed.
  max(cpu_time)          :      0.148 s.
  Wall clock time (cpu1) :      0.168 s.
------------------------------------------------------------

------------------------------------------------------------
          Begin self-consistency loop: Initialization.

          Date     :  20140812, Time     :  112224.768
------------------------------------------------------------

  Initializing index lists of integration centers etc. from given atomic structure:
  | Number of centers in hartree potential         :         2
  | Number of centers in hartree multipole         :         2
  | Number of centers in electron density summation:         2
  | Number of centers in basis integrals           :         2
  | Number of centers in integrals                 :         2
  Partitioning the integration grid into batches with parallel hashing+maxmin method.
  | Number of batches:     1916
  | Maximal batch size:     150
  | Minimal batch size:      65
  | Average batch size:      75.367
  | Standard deviation of batch sizes:      18.132

  Integration load balanced across     4 MPI tasks.
  Work distribution over tasks is as follows:
  Task     0 has      36127 integration points.
  Task     1 has      36111 integration points.
  Task     2 has      36109 integration points.
  Task     3 has      36057 integration points.
  Initializing partition tables, free-atom densities, potentials, etc. across the integration grid (initialize_grid_storage).
  | Original list of interatomic distances with           2 x          2 entries is created.
  | Net number of integration points:   144404
  | of which are non-zero points    :   140628
  Obtaining max. number of non-zero basis functions in each batch (get_n_compute_maxes).
  | Maximal number of non-zero basis functions:       62 in task     0
  | Maximal number of non-zero basis functions:       62 in task     1
  | Maximal number of non-zero basis functions:       62 in task     2
  | Maximal number of non-zero basis functions:       62 in task     3
  Selecting the method for density update.
  Loop over occupied states selected for charge density update.
  Integrating Hamiltonian matrix: batch-based integration.
  Time summed over all CPUs for integration: real work        1.169 s, elapsed        1.187 s
  Integrating overlap matrix.
  Time summed over all CPUs for integration: real work        0.746 s, elapsed        0.769 s

  Updating Kohn-Sham eigenvalues, eigenvectors, occupation numbers, and Fermi level.
  Solving generalized eigenproblem
  Updating Kohn-Sham eigenvalues and eigenfunctions.
  Transforming overlap matrix and checking for singularities.
  Overlap matrix is nonsingular:
  | Lowest eigenvalue:  0.292836E+00
  Solving real generalised eigenvalue problem by standard LAPACK (fast)
  Determining occupation numbers for Kohn-Sham eigenstates.
  | Chemical potential (Fermi level) in eV                 : -.63622938E+01
  | Error in electron count due to remaining E_F inaccuracy: 0.00000000E+00
  | Maximum occupation number of highest empty state:  0.00E+00

  Writing Kohn-Sham eigenvalues.

  State    Occupation    Eigenvalue [Ha]    Eigenvalue [eV]
      1       2.00000          -0.243668           -6.63055
      2       0.00000          -0.223952           -6.09403
      3       0.00000           0.095020            2.58563
      4       0.00000           0.113064            3.07662
      5       0.00000           0.188504            5.12946
      6       0.00000           0.223666            6.08627
      7       0.00000           0.223666            6.08627
      8       0.00000           0.266259            7.24528
      9       0.00000           0.266259            7.24528
     10       0.00000           0.385305           10.48468
     11       0.00000           0.746110           20.30268
     12       0.00000           0.808039           21.98785
     13       0.00000           0.972708           26.46872
     14       0.00000           0.972708           26.46872
     15       0.00000           0.973843           26.49961
     16       0.00000           1.015021           27.62013
     17       0.00000           1.015021           27.62013
     18       0.00000           1.029959           28.02661
     19       0.00000           1.029959           28.02661
     20       0.00000           1.075462           29.26482
     21       0.00000           1.075462           29.26482
     22       0.00000           1.152930           31.37282
     23       0.00000           1.557062           42.36982
     24       0.00000           1.557062           42.36982
     25       0.00000           1.561560           42.49221
     26       0.00000           1.635405           44.50163
     27       0.00000           1.635405           44.50163
     28       0.00000           1.903442           51.79529
     29       0.00000           3.183176           86.61863
     30       0.00000           3.201055           87.10514
     31       0.00000           3.201055           87.10514
     32       0.00000           3.226710           87.80324
     33       0.00000           3.226710           87.80324
     34       0.00000           3.236176           88.06082
     35       0.00000           3.236176           88.06082
     36       0.00000           3.238105           88.11332
     37       0.00000           3.238105           88.11332
     38       0.00000           3.247339           88.36459
     39       0.00000           3.247339           88.36459
     40       0.00000           3.278649           89.21657
     41       0.00000           3.278649           89.21657
     42       0.00000           3.306371           89.97094
     43       0.00000           3.509695           95.50367
     44       0.00000           3.620394           98.51593
     45       0.00000           4.926533          134.05778
     46       0.00000           4.926533          134.05778
     47       0.00000           4.941289          134.45933
     48       0.00000           5.000506          136.07069
     49       0.00000           5.000506          136.07069
     50       0.00000           5.035231          137.01560
     51       0.00000           5.035231          137.01560
     52       0.00000           5.144969          140.00172
     53       0.00000           5.144969          140.00172
     54       0.00000           5.373248          146.21352
     55       0.00000           8.124079          221.06744
     56       0.00000           8.124079          221.06744
     57       0.00000           8.157789          221.98474
     58       0.00000           8.304383          225.97377
     59       0.00000           8.304383          225.97377
     60       0.00000           8.919147          242.70234
     61       0.00000          21.341747          580.73850
     62       0.00000          21.693694          590.31546

  Highest occupied state (VBM) at     -6.63055283 eV
  | Occupation number:      2.00000000

  Lowest unoccupied state (CBM) at    -6.09403479 eV
  | Occupation number:      0.00000000

  Overall HOMO-LUMO gap:      0.53651804 eV.
  Calculating total energy contributions from superposition of free atom densities.

  Total energy components:
  | Sum of eigenvalues            :          -0.48733668 Ha         -13.26110565 eV
  | XC energy correction          :          -0.46630293 Ha         -12.68874827 eV
  | XC potential correction       :           0.60782233 Ha          16.53968711 eV
  | Free-atom electrostatic energy:          -0.56528534 Ha         -15.38219676 eV
  | Hartree energy correction     :           0.00000000 Ha           0.00000000 eV
  | Entropy correction            :           0.00000000 Ha           0.00000000 eV
  | ---------------------------
  | Total energy                  :          -0.91110261 Ha         -24.79236357 eV
  | Total energy, T -> 0          :          -0.91110261 Ha         -24.79236357 eV  <-- do not rely on this value for anything but (periodic) metals
  | Electronic free energy        :          -0.91110261 Ha         -24.79236357 eV

  Derived energy quantities:
  | Kinetic energy                :           0.83148223 Ha          22.62578253 eV
  | Electrostatic energy          :          -1.27628191 Ha         -34.72939784 eV
  | Energy correction for multipole
  | error in Hartree potential    :           0.00000000 Ha           0.00000000 eV
  | Sum of eigenvalues per atom                           :          -6.63055283 eV
  | Total energy (T->0) per atom                          :         -12.39618178 eV  <-- do not rely on this value for anything but (periodic) metals
  | Electronic free energy per atom                       :         -12.39618178 eV
 
 --------------------------------------------
  Constructing auxiliary basis (full product) ...
 
  Product basis:
  | charge radius: extent of product basis function
  | field radius: extent of its Coulomb potential
  | Species   l  charge radius    field radius  multipol momen
  |    H      5     4.813203 A      4.813203 A  2.676041E-15 a.u.
  |    H      4     4.932336 A      4.932336 A  2.417679E-16 a.u.
  |    H      3     5.054418 A      5.054418 A  ************ a.u.
  |    H      4     5.054418 A      5.054418 A  ************ a.u.
  |    H      3     5.116587 A      5.116587 A  1.642688E-15 a.u.
  |    H      2     5.179521 A      5.179521 A  6.126280E-16 a.u.
  |    H      3     5.179521 A      5.179521 A  ************ a.u.
  |    H      2     5.243229 A      5.243229 A  1.485543E-16 a.u.
  |    H      2     5.243229 A      5.243229 A  1.683301E-16 a.u.
  |    H      2     5.243229 A      5.243229 A  ************ a.u.
  |    H      3     5.243229 A      5.243229 A  ************ a.u.
  |    H      1     5.307721 A      5.307721 A  2.416866E-16 a.u.
  |    H      1     5.307721 A      5.307721 A  1.291012E-16 a.u.
  |    H      2     5.307721 A      5.307721 A  7.871382E-16 a.u.
  |    H      0     5.373006 A      5.373006 A  9.519909E-17 a.u.
  |    H      1     5.373006 A      5.373006 A  2.334090E-16 a.u.
  |    H      1     5.373006 A      5.373006 A  ************ a.u.
  |    H      1     5.373006 A      5.373006 A  ************ a.u.
  |    H      1     5.373006 A      5.373006 A  1.823473E-16 a.u.
  |    H      0     5.373006 A      5.439094 A  ************ a.u.
  |    H      0     5.439094 A      5.439094 A  ************ a.u.
  |    H      0     5.439094 A      5.505995 A  9.305319E-17 a.u.
  |    H      0     5.439094 A      5.505995 A  4.082184E-17 a.u.
  |    H      0     5.439094 A      5.505995 A  3.169850E-16 a.u.
  |    H      0     5.439094 A      5.505995 A  2.711689E-16 a.u.
  |    H      5     4.872405 A  1.325110E+02 A           19.619780 a.u.
  |    H      4     5.054418 A  3.771796E+02 A           14.639479 a.u.
  |    H      3     5.243229 A  1.836978E+03 A           11.555842 a.u.
  |    H      2     5.307721 A  2.095310E+04 A            4.940052 a.u.
  |    H      1     5.373006 A  2.512347E+06 A            1.793689 a.u.
  |    H      0     5.439094 A  4.604132E+12 A            0.692368 a.u.

  | Shrink_full_auxil_basis : there are       31  radial auxiliary wave functions
                            accepted and      90 rejected.
  | Shrink_full_auxil_basis : there are totally     286 partial auxiliary wave functions.
 
  | Number of product basis functions per thread :    72
  | Minimal requirement for computer memories :           0.005 Gbs
 
  Basis pair condensation :      1953  -->       1953
 
 ----------------------------------------------------
  Integrating the 3-basis-function Coulomb matrix ...
  | i_atom:            1
  | i_atom:            2
  Integrating the Coulomb interaction matrix for auxiliary basis functions (by atoms)

  SBT integration errors (all should be 'small'):
  large logFT aliasing -> increase N/lnrange
  large SBT aliasing -> decrease lnk0 & increase lnk0+lnrange
  large SBT ringing -> decrease lnr0 & increase lnr0+lnrange
  |            El't  L: logFT-al.   small-k   large-k   small-r   large-r
  Atomic logSBT for 2-center Coulomb matrix    :  max(cpu_time)    wall_clock(cpu1)
  | Multiplication with kernel                 :        0.020 s           0.009 s
  | Main matrix multiplication                 :        0.072 s           0.047 s
  | Analytic angular integration               :        0.004 s           0.000 s
  | Kernel construction                        :        0.004 s           0.002 s
  | Overall 2-center overlap time              :        0.096 s           0.063 s

  Difference of Coulomb matrix to its transposed:  1.1102E-16
  Task     0: Eigenvalues of the Coulomb matrix range from    1.9953E+00 to    4.6167E-03.
  Task     0: Using      286   eigenvalues out of rank      286   Coulomb matrix (auxiliary basis).
 
  Multiplying V^-0.5 x ovlp_3fn (1d-scalapack)

  Initialize hartree_potential_storage
  Max. number of atoms included in rho_multipole:            2

  End scf initialization - timings             :  max(cpu_time)    wall_clock(cpu1)
  | Time for scf. initialization               :       24.862 s          24.887 s
  | Boundary condition initialization          :        0.000 s           0.000 s
  | Integration                                :        0.492 s           0.490 s
  | Solution of K.-S. eqns.                    :        0.004 s           0.004 s
  | Grid partitioning                          :        0.224 s           0.223 s
  | Preloading free-atom quantities on grid    :        0.068 s           0.067 s
  | Free-atom superposition energy             :        0.036 s           0.035 s
  | Total energy evaluation                    :        0.000 s           0.000 s
  | Product basis setup: Total time            :       23.965 s          23.991 s
  | Product basis: | 3-center integrations     :       23.497 s          23.522 s
  | Product basis: | 2-center integrations     :        0.252 s           0.252 s
  | Product basis: | 2-center linear algebra   :        0.084 s           0.084 s
  | Product basis: | 3-center x 2-center       :        0.028 s           0.024 s
------------------------------------------------------------

------------------------------------------------------------
          Begin self-consistency iteration #    1

  Date     :  20140812, Time     :  112249.656
------------------------------------------------------------
  Evaluating new KS density.
  Integration grid: deviation in total charge (<rho> - N_e) =  -4.662937E-15
  Pulay mixing of updated and previous charge densities.

  Evaluating partitioned Hartree potential by multipole expansion.
  | Analytical far-field extrapolation by fixed multipoles:
  | Hartree multipole sum: apparent total charge =  -0.928929E-07
  Summing up the Hartree potential.
  Time summed over all CPUs for potential: real work        1.044 s, elapsed        1.069 s
  | RMS charge density error from multipole expansion :   0.367021E-04

  Integrating Hamiltonian matrix: batch-based integration.
  Time summed over all CPUs for integration: real work        1.073 s, elapsed        1.104 s
  Evaluating the exchange matrix ... 

  Updating Kohn-Sham eigenvalues, eigenvectors, occupation numbers, and Fermi level.
  Solving generalized eigenproblem
  Updating Kohn-Sham eigenvalues and eigenfunctions.
  Solving real generalised eigenvalue problem by standard LAPACK (fast)
  Determining occupation numbers for Kohn-Sham eigenstates.
  | Chemical potential (Fermi level) in eV                 : -.59056079E+01
  | Error in electron count due to remaining E_F inaccuracy: 0.00000000E+00
  | Maximum occupation number of highest empty state:  0.00E+00

  Writing Kohn-Sham eigenvalues.

  State    Occupation    Eigenvalue [Ha]    Eigenvalue [eV]
      1       2.00000          -0.312384           -8.50040
      2       0.00000          -0.121670           -3.31082
      3       0.00000           0.196852            5.35662
      4       0.00000           0.207960            5.65889
      5       0.00000           0.334238            9.09507
      6       0.00000           0.372138           10.12638
      7       0.00000           0.372138           10.12638
      8       0.00000           0.424977           11.56423
      9       0.00000           0.424977           11.56423
     10       0.00000           0.555646           15.11989
     11       0.00000           0.947414           25.78044
     12       0.00000           1.016400           27.65766
     13       0.00000           1.166889           31.75268
     14       0.00000           1.166889           31.75268
     15       0.00000           1.170990           31.86427
     16       0.00000           1.211011           32.95328
     17       0.00000           1.211011           32.95328
     18       0.00000           1.227311           33.39683
     19       0.00000           1.227311           33.39683
     20       0.00000           1.277833           34.77160
     21       0.00000           1.277833           34.77160
     22       0.00000           1.368113           37.22825
     23       0.00000           1.822707           49.59837
     24       0.00000           1.822707           49.59837
     25       0.00000           1.830627           49.81389
     26       0.00000           1.902065           51.75783
     27       0.00000           1.902065           51.75783
     28       0.00000           2.174050           59.15892
     29       0.00000           3.446551           93.78543
     30       0.00000           3.462294           94.21381
     31       0.00000           3.462294           94.21381
     32       0.00000           3.488407           94.92440
     33       0.00000           3.488407           94.92440
     34       0.00000           3.497667           95.17637
     35       0.00000           3.497667           95.17637
     36       0.00000           3.499682           95.23119
     37       0.00000           3.499682           95.23119
     38       0.00000           3.509897           95.50916
     39       0.00000           3.509897           95.50916
     40       0.00000           3.543083           96.41220
     41       0.00000           3.543083           96.41220
     42       0.00000           3.576225           97.31404
     43       0.00000           3.860889          105.06014
     44       0.00000           3.971713          108.07581
     45       0.00000           5.262428          143.19795
     46       0.00000           5.262428          143.19795
     47       0.00000           5.278595          143.63787
     48       0.00000           5.336654          145.21773
     49       0.00000           5.336654          145.21774
     50       0.00000           5.371949          146.17816
     51       0.00000           5.371949          146.17816
     52       0.00000           5.484253          149.23411
     53       0.00000           5.484253          149.23411
     54       0.00000           5.718446          155.60684
     55       0.00000           8.539663          232.37605
     56       0.00000           8.539663          232.37605
     57       0.00000           8.575305          233.34593
     58       0.00000           8.720953          237.30920
     59       0.00000           8.720953          237.30920
     60       0.00000           9.339541          254.14184
     61       0.00000          21.844905          594.43010
     62       0.00000          22.197367          604.02109

  Highest occupied state (VBM) at     -8.50039590 eV
  | Occupation number:      2.00000000

  Lowest unoccupied state (CBM) at    -3.31081983 eV
  | Occupation number:      0.00000000

  Overall HOMO-LUMO gap:      5.18957608 eV.

  Total energy components:
  | Sum of eigenvalues            :          -0.62476762 Ha         -17.00079181 eV
  | XC energy correction          :           0.35898941 Ha           9.76859891 eV
  | XC potential correction       :           0.00000000 Ha           0.00000000 eV
  | Free-atom electrostatic energy:          -0.56528534 Ha         -15.38219676 eV
  | Hartree energy correction     :           0.00791085 Ha           0.21526526 eV
  | Entropy correction            :           0.00000000 Ha           0.00000000 eV
  | ---------------------------
  | Total energy                  :          -0.82315269 Ha         -22.39912440 eV
  | Total energy, T -> 0          :          -0.82315269 Ha         -22.39912440 eV  <-- do not rely on this value for anything but (periodic) metals
  | Electronic free energy        :          -0.82315269 Ha         -22.39912440 eV

  Derived energy quantities:
  | Kinetic energy                :           0.79003476 Ha          21.49793974 eV
  | Electrostatic energy          :          -1.25419804 Ha         -34.12846523 eV
  | Energy correction for multipole
  | error in Hartree potential    :          -0.00000442 Ha          -0.00012031 eV
  | Sum of eigenvalues per atom                           :          -8.50039590 eV
  | Total energy (T->0) per atom                          :         -11.19956220 eV  <-- do not rely on this value for anything but (periodic) metals
  | Electronic free energy per atom                       :         -11.19956220 eV

  Self-consistency convergence accuracy:
  | Change of charge density      : 0.1622E-01
  | Change of sum of eigenvalues  : -.3740E+01 eV
  | Change of total energy        : 0.2393E+01 eV

  End self-consistency iteration #     1       :  max(cpu_time)    wall_clock(cpu1)
  | Time for this iteration                    :        0.768 s           0.768 s
  | Charge density update                      :        0.140 s           0.140 s
  | Density mixing                             :        0.004 s           0.002 s
  | Hartree multipole update                   :        0.068 s           0.066 s
  | Hartree multipole summation                :        0.272 s           0.269 s
  | Integration                                :        0.276 s           0.276 s
  | Fock matrix evaluation                     :        0.016 s           0.012 s
  | Solution of K.-S. eqns.                    :        0.004 s           0.001 s
  | Total energy evaluation                    :        0.000 s           0.000 s
------------------------------------------------------------

------------------------------------------------------------
          Begin self-consistency iteration #    2

  Date     :  20140812, Time     :  112250.424
------------------------------------------------------------
  Evaluating new KS density.
  Integration grid: deviation in total charge (<rho> - N_e) =  -3.108624E-15
  Pulay mixing of updated and previous charge densities.

  Evaluating partitioned Hartree potential by multipole expansion.
  | Analytical far-field extrapolation by fixed multipoles:
  | Hartree multipole sum: apparent total charge =  -0.885587E-07
  Summing up the Hartree potential.
  Time summed over all CPUs for potential: real work        1.014 s, elapsed        1.018 s
  | RMS charge density error from multipole expansion :   0.161017E-04

  Integrating Hamiltonian matrix: batch-based integration.
  Time summed over all CPUs for integration: real work        1.077 s, elapsed        1.090 s
  Evaluating the exchange matrix ... 

  Updating Kohn-Sham eigenvalues, eigenvectors, occupation numbers, and Fermi level.
  Solving generalized eigenproblem
  Updating Kohn-Sham eigenvalues and eigenfunctions.
  Solving real generalised eigenvalue problem by standard LAPACK (fast)
  Determining occupation numbers for Kohn-Sham eigenstates.
  | Chemical potential (Fermi level) in eV                 : -.58000006E+01
  | Error in electron count due to remaining E_F inaccuracy: 0.00000000E+00
  | Maximum occupation number of highest empty state:  0.00E+00

  Highest occupied state (VBM) at     -8.39276163 eV
  | Occupation number:      2.00000000

  Lowest unoccupied state (CBM) at    -3.20723958 eV
  | Occupation number:      0.00000000

  Overall HOMO-LUMO gap:      5.18552204 eV.

  Total energy components:
  | Sum of eigenvalues            :          -0.61685664 Ha         -16.78552325 eV
  | XC energy correction          :           0.35166582 Ha           9.56931375 eV
  | XC potential correction       :           0.00000000 Ha           0.00000000 eV
  | Free-atom electrostatic energy:          -0.56528534 Ha         -15.38219676 eV
  | Hartree energy correction     :          -0.00781213 Ha          -0.21257900 eV
  | Entropy correction            :           0.00000000 Ha           0.00000000 eV
  | ---------------------------
  | Total energy                  :          -0.83828830 Ha         -22.81098526 eV
  | Total energy, T -> 0          :          -0.83828830 Ha         -22.81098526 eV  <-- do not rely on this value for anything but (periodic) metals
  | Electronic free energy        :          -0.83828830 Ha         -22.81098526 eV

  Derived energy quantities:
  | Kinetic energy                :           0.80282023 Ha          21.84585002 eV
  | Electrostatic energy          :          -1.28944272 Ha         -35.08752154 eV
  | Energy correction for multipole
  | error in Hartree potential    :          -0.00000026 Ha          -0.00000708 eV
  | Sum of eigenvalues per atom                           :          -8.39276163 eV
  | Total energy (T->0) per atom                          :         -11.40549263 eV  <-- do not rely on this value for anything but (periodic) metals
  | Electronic free energy per atom                       :         -11.40549263 eV

  Self-consistency convergence accuracy:
  | Change of charge density      : 0.3381E-01
  | Change of sum of eigenvalues  : 0.2153E+00 eV
  | Change of total energy        : -.4119E+00 eV

  End self-consistency iteration #     2       :  max(cpu_time)    wall_clock(cpu1)
  | Time for this iteration                    :        0.744 s           0.745 s
  | Charge density update                      :        0.136 s           0.134 s
  | Density mixing                             :        0.004 s           0.004 s
  | Hartree multipole update                   :        0.064 s           0.065 s
  | Hartree multipole summation                :        0.256 s           0.256 s
  | Integration                                :        0.276 s           0.272 s
  | Fock matrix evaluation                     :        0.012 s           0.012 s
  | Solution of K.-S. eqns.                    :        0.004 s           0.002 s
  | Total energy evaluation                    :        0.000 s           0.000 s
------------------------------------------------------------

------------------------------------------------------------
          Begin self-consistency iteration #    3

  Date     :  20140812, Time     :  112251.170
------------------------------------------------------------
  Evaluating new KS density.
  Integration grid: deviation in total charge (<rho> - N_e) =  -2.664535E-15
  Pulay mixing of updated and previous charge densities.

  Evaluating partitioned Hartree potential by multipole expansion.
  | Analytical far-field extrapolation by fixed multipoles:
  | Hartree multipole sum: apparent total charge =  -0.943385E-07
  Summing up the Hartree potential.
  Time summed over all CPUs for potential: real work        1.018 s, elapsed        1.033 s
  | RMS charge density error from multipole expansion :   0.110889E-03

  Integrating Hamiltonian matrix: batch-based integration.
  Time summed over all CPUs for integration: real work        1.060 s, elapsed        1.075 s
  Evaluating the exchange matrix ... 

  Updating Kohn-Sham eigenvalues, eigenvectors, occupation numbers, and Fermi level.
  Solving generalized eigenproblem
  Updating Kohn-Sham eigenvalues and eigenfunctions.
  Solving real generalised eigenvalue problem by standard LAPACK (fast)
  Determining occupation numbers for Kohn-Sham eigenstates.
  | Chemical potential (Fermi level) in eV                 : -.62068530E+01
  | Error in electron count due to remaining E_F inaccuracy: 0.00000000E+00
  | Maximum occupation number of highest empty state:  0.00E+00

  Highest occupied state (VBM) at     -8.80756973 eV
  | Occupation number:      2.00000000

  Lowest unoccupied state (CBM) at    -3.60613621 eV
  | Occupation number:      0.00000000

  Overall HOMO-LUMO gap:      5.20143352 eV.

  Total energy components:
  | Sum of eigenvalues            :          -0.64734448 Ha         -17.61513947 eV
  | XC energy correction          :           0.34208857 Ha           9.30870374 eV
  | XC potential correction       :           0.00000000 Ha           0.00000000 eV
  | Free-atom electrostatic energy:          -0.56528534 Ha         -15.38219676 eV
  | Hartree energy correction     :           0.04836419 Ha           1.31605656 eV
  | Entropy correction            :           0.00000000 Ha           0.00000000 eV
  | ---------------------------
  | Total energy                  :          -0.82217705 Ha         -22.37257594 eV
  | Total energy, T -> 0          :          -0.82217705 Ha         -22.37257594 eV  <-- do not rely on this value for anything but (periodic) metals
  | Electronic free energy        :          -0.82217705 Ha         -22.37257594 eV

  Derived energy quantities:
  | Kinetic energy                :           0.67144917 Ha          18.27106150 eV
  | Electrostatic energy          :          -1.15153765 Ha         -31.33493370 eV
  | Energy correction for multipole
  | error in Hartree potential    :          -0.00001785 Ha          -0.00048578 eV
  | Sum of eigenvalues per atom                           :          -8.80756973 eV
  | Total energy (T->0) per atom                          :         -11.18628797 eV  <-- do not rely on this value for anything but (periodic) metals
  | Electronic free energy per atom                       :         -11.18628797 eV

  Self-consistency convergence accuracy:
  | Change of charge density      : 0.4535E-01
  | Change of sum of eigenvalues  : -.8296E+00 eV
  | Change of total energy        : 0.4384E+00 eV

  End self-consistency iteration #     3       :  max(cpu_time)    wall_clock(cpu1)
  | Time for this iteration                    :        0.752 s           0.750 s
  | Charge density update                      :        0.136 s           0.135 s
  | Density mixing                             :        0.008 s           0.009 s
  | Hartree multipole update                   :        0.064 s           0.064 s
  | Hartree multipole summation                :        0.260 s           0.259 s
  | Integration                                :        0.272 s           0.269 s
  | Fock matrix evaluation                     :        0.012 s           0.012 s
  | Solution of K.-S. eqns.                    :        0.000 s           0.002 s
  | Total energy evaluation                    :        0.004 s           0.000 s
------------------------------------------------------------

------------------------------------------------------------
          Begin self-consistency iteration #    4

  Date     :  20140812, Time     :  112251.921
------------------------------------------------------------
  Evaluating new KS density.
  Integration grid: deviation in total charge (<rho> - N_e) =   3.996803E-15
  Pulay mixing of updated and previous charge densities.

  Evaluating partitioned Hartree potential by multipole expansion.
  | Analytical far-field extrapolation by fixed multipoles:
  | Hartree multipole sum: apparent total charge =  -0.943947E-07
  Summing up the Hartree potential.
  Time summed over all CPUs for potential: real work        1.028 s, elapsed        1.035 s
  | RMS charge density error from multipole expansion :   0.117794E-03

  Integrating Hamiltonian matrix: batch-based integration.
  Time summed over all CPUs for integration: real work        1.070 s, elapsed        1.078 s
  Evaluating the exchange matrix ... 

  Updating Kohn-Sham eigenvalues, eigenvectors, occupation numbers, and Fermi level.
  Solving generalized eigenproblem
  Updating Kohn-Sham eigenvalues and eigenfunctions.
  Solving real generalised eigenvalue problem by standard LAPACK (fast)
  Determining occupation numbers for Kohn-Sham eigenstates.
  | Chemical potential (Fermi level) in eV                 : -.62354230E+01
  | Error in electron count due to remaining E_F inaccuracy: 0.00000000E+00
  | Maximum occupation number of highest empty state:  0.00E+00

  Highest occupied state (VBM) at     -8.83650536 eV
  | Occupation number:      2.00000000

  Lowest unoccupied state (CBM) at    -3.63434072 eV
  | Occupation number:      0.00000000

  Overall HOMO-LUMO gap:      5.20216463 eV.

  Total energy components:
  | Sum of eigenvalues            :          -0.64947121 Ha         -17.67301071 eV
  | XC energy correction          :           0.33941321 Ha           9.23590324 eV
  | XC potential correction       :           0.00000000 Ha           0.00000000 eV
  | Free-atom electrostatic energy:          -0.56528534 Ha         -15.38219676 eV
  | Hartree energy correction     :           0.05239537 Ha           1.42575053 eV
  | Entropy correction            :           0.00000000 Ha           0.00000000 eV
  | ---------------------------
  | Total energy                  :          -0.82294797 Ha         -22.39355371 eV
  | Total energy, T -> 0          :          -0.82294797 Ha         -22.39355371 eV  <-- do not rely on this value for anything but (periodic) metals
  | Electronic free energy        :          -0.82294797 Ha         -22.39355371 eV

  Derived energy quantities:
  | Kinetic energy                :           0.65961164 Ha          17.94894596 eV
  | Electrostatic energy          :          -1.14314641 Ha         -31.10659643 eV
  | Energy correction for multipole
  | error in Hartree potential    :          -0.00001979 Ha          -0.00053858 eV
  | Sum of eigenvalues per atom                           :          -8.83650536 eV
  | Total energy (T->0) per atom                          :         -11.19677686 eV  <-- do not rely on this value for anything but (periodic) metals
  | Electronic free energy per atom                       :         -11.19677686 eV

  Self-consistency convergence accuracy:
  | Change of charge density      : 0.2018E-02
  | Change of sum of eigenvalues  : -.5787E-01 eV
  | Change of total energy        : -.2098E-01 eV

  End self-consistency iteration #     4       :  max(cpu_time)    wall_clock(cpu1)
  | Time for this iteration                    :        0.760 s           0.760 s
  | Charge density update                      :        0.144 s           0.140 s
  | Density mixing                             :        0.012 s           0.012 s
  | Hartree multipole update                   :        0.064 s           0.064 s
  | Hartree multipole summation                :        0.260 s           0.260 s
  | Integration                                :        0.272 s           0.270 s
  | Fock matrix evaluation                     :        0.012 s           0.012 s
  | Solution of K.-S. eqns.                    :        0.000 s           0.001 s
  | Total energy evaluation                    :        0.000 s           0.000 s
------------------------------------------------------------

------------------------------------------------------------
          Begin self-consistency iteration #    5

  Date     :  20140812, Time     :  112252.681
------------------------------------------------------------
  Evaluating new KS density.
  Integration grid: deviation in total charge (<rho> - N_e) =   9.325873E-15
  Pulay mixing of updated and previous charge densities.

  Evaluating partitioned Hartree potential by multipole expansion.
  | Analytical far-field extrapolation by fixed multipoles:
  | Hartree multipole sum: apparent total charge =  -0.940434E-07
  Summing up the Hartree potential.
  Time summed over all CPUs for potential: real work        1.030 s, elapsed        1.043 s
  | RMS charge density error from multipole expansion :   0.117561E-03

  Integrating Hamiltonian matrix: batch-based integration.
  Time summed over all CPUs for integration: real work        1.084 s, elapsed        1.099 s
  Evaluating the exchange matrix ... 

  Updating Kohn-Sham eigenvalues, eigenvectors, occupation numbers, and Fermi level.
  Solving generalized eigenproblem
  Updating Kohn-Sham eigenvalues and eigenfunctions.
  Solving real generalised eigenvalue problem by standard LAPACK (fast)
  Determining occupation numbers for Kohn-Sham eigenstates.
  | Chemical potential (Fermi level) in eV                 : -.62348837E+01
  | Error in electron count due to remaining E_F inaccuracy: 0.00000000E+00
  | Maximum occupation number of highest empty state:  0.00E+00

  Highest occupied state (VBM) at     -8.83598019 eV
  | Occupation number:      2.00000000

  Lowest unoccupied state (CBM) at    -3.63378714 eV
  | Occupation number:      0.00000000

  Overall HOMO-LUMO gap:      5.20219305 eV.

  Total energy components:
  | Sum of eigenvalues            :          -0.64943261 Ha         -17.67196039 eV
  | XC energy correction          :           0.33918304 Ha           9.22964012 eV
  | XC potential correction       :           0.00000000 Ha           0.00000000 eV
  | Free-atom electrostatic energy:          -0.56528534 Ha         -15.38219676 eV
  | Hartree energy correction     :           0.05238476 Ha           1.42546176 eV
  | Entropy correction            :           0.00000000 Ha           0.00000000 eV
  | ---------------------------
  | Total energy                  :          -0.82315015 Ha         -22.39905526 eV
  | Total energy, T -> 0          :          -0.82315015 Ha         -22.39905526 eV  <-- do not rely on this value for anything but (periodic) metals
  | Electronic free energy        :          -0.82315015 Ha         -22.39905526 eV

  Derived energy quantities:
  | Kinetic energy                :           0.65956107 Ha          17.94756975 eV
  | Electrostatic energy          :          -1.14352818 Ha         -31.11698489 eV
  | Energy correction for multipole
  | error in Hartree potential    :          -0.00001988 Ha          -0.00054093 eV
  | Sum of eigenvalues per atom                           :          -8.83598019 eV
  | Total energy (T->0) per atom                          :         -11.19952763 eV  <-- do not rely on this value for anything but (periodic) metals
  | Electronic free energy per atom                       :         -11.19952763 eV

  Self-consistency convergence accuracy:
  | Change of charge density      : 0.2423E-03
  | Change of sum of eigenvalues  : 0.1050E-02 eV
  | Change of total energy        : -.5502E-02 eV

  End self-consistency iteration #     5       :  max(cpu_time)    wall_clock(cpu1)
  | Time for this iteration                    :        0.768 s           0.767 s
  | Charge density update                      :        0.136 s           0.136 s
  | Density mixing                             :        0.016 s           0.016 s
  | Hartree multipole update                   :        0.064 s           0.064 s
  | Hartree multipole summation                :        0.264 s           0.262 s
  | Integration                                :        0.276 s           0.275 s
  | Fock matrix evaluation                     :        0.016 s           0.012 s
  | Solution of K.-S. eqns.                    :        0.004 s           0.001 s
  | Total energy evaluation                    :        0.000 s           0.001 s
------------------------------------------------------------

------------------------------------------------------------
          Begin self-consistency iteration #    6

  Date     :  20140812, Time     :  112253.449
------------------------------------------------------------
  Evaluating new KS density.
  Integration grid: deviation in total charge (<rho> - N_e) =  -5.773160E-15
  Pulay mixing of updated and previous charge densities.

  Evaluating partitioned Hartree potential by multipole expansion.
  | Analytical far-field extrapolation by fixed multipoles:
  | Hartree multipole sum: apparent total charge =  -0.939950E-07
  Summing up the Hartree potential.
  Time summed over all CPUs for potential: real work        1.019 s, elapsed        1.023 s
  | RMS charge density error from multipole expansion :   0.117276E-03

  Integrating Hamiltonian matrix: batch-based integration.
  Time summed over all CPUs for integration: real work        1.068 s, elapsed        1.091 s
  Evaluating the exchange matrix ... 

  Updating Kohn-Sham eigenvalues, eigenvectors, occupation numbers, and Fermi level.
  Solving generalized eigenproblem
  Updating Kohn-Sham eigenvalues and eigenfunctions.
  Solving real generalised eigenvalue problem by standard LAPACK (fast)
  Determining occupation numbers for Kohn-Sham eigenstates.
  | Chemical potential (Fermi level) in eV                 : -.62337522E+01
  | Error in electron count due to remaining E_F inaccuracy: 0.00000000E+00
  | Maximum occupation number of highest empty state:  0.00E+00

  Highest occupied state (VBM) at     -8.83484174 eV
  | Occupation number:      2.00000000

  Lowest unoccupied state (CBM) at    -3.63266257 eV
  | Occupation number:      0.00000000

  Overall HOMO-LUMO gap:      5.20217917 eV.

  Total energy components:
  | Sum of eigenvalues            :          -0.64934893 Ha         -17.66968348 eV
  | XC energy correction          :           0.33920848 Ha           9.23033243 eV
  | XC potential correction       :           0.00000000 Ha           0.00000000 eV
  | Free-atom electrostatic energy:          -0.56528534 Ha         -15.38219676 eV
  | Hartree energy correction     :           0.05223376 Ha           1.42135282 eV
  | Entropy correction            :           0.00000000 Ha           0.00000000 eV
  | ---------------------------
  | Total energy                  :          -0.82319204 Ha         -22.40019499 eV
  | Total energy, T -> 0          :          -0.82319204 Ha         -22.40019499 eV  <-- do not rely on this value for anything but (periodic) metals
  | Electronic free energy        :          -0.82319204 Ha         -22.40019499 eV

  Derived energy quantities:
  | Kinetic energy                :           0.65990624 Ha          17.95696238 eV
  | Electrostatic energy          :          -1.14388979 Ha         -31.12682495 eV
  | Energy correction for multipole
  | error in Hartree potential    :          -0.00001982 Ha          -0.00053923 eV
  | Sum of eigenvalues per atom                           :          -8.83484174 eV
  | Total energy (T->0) per atom                          :         -11.20009750 eV  <-- do not rely on this value for anything but (periodic) metals
  | Electronic free energy per atom                       :         -11.20009750 eV

  Self-consistency convergence accuracy:
  | Change of charge density      : 0.9911E-04
  | Change of sum of eigenvalues  : 0.2277E-02 eV
  | Change of total energy        : -.1140E-02 eV

  End self-consistency iteration #     6       :  max(cpu_time)    wall_clock(cpu1)
  | Time for this iteration                    :        0.764 s           0.764 s
  | Charge density update                      :        0.136 s           0.136 s
  | Density mixing                             :        0.020 s           0.020 s
  | Hartree multipole update                   :        0.064 s           0.064 s
  | Hartree multipole summation                :        0.256 s           0.257 s
  | Integration                                :        0.276 s           0.273 s
  | Fock matrix evaluation                     :        0.012 s           0.012 s
  | Solution of K.-S. eqns.                    :        0.004 s           0.001 s
  | Total energy evaluation                    :        0.000 s           0.001 s
------------------------------------------------------------

------------------------------------------------------------
          Begin self-consistency iteration #    7

  Date     :  20140812, Time     :  112254.213
------------------------------------------------------------
  Evaluating new KS density.
  Integration grid: deviation in total charge (<rho> - N_e) =  -1.110223E-15
  Pulay mixing of updated and previous charge densities.

  Evaluating partitioned Hartree potential by multipole expansion.
  | Analytical far-field extrapolation by fixed multipoles:
  | Hartree multipole sum: apparent total charge =  -0.939935E-07
  Summing up the Hartree potential.
  Time summed over all CPUs for potential: real work        1.018 s, elapsed        1.023 s
  | RMS charge density error from multipole expansion :   0.117286E-03

  Integrating Hamiltonian matrix: batch-based integration.
  Time summed over all CPUs for integration: real work        1.061 s, elapsed        1.076 s
  Evaluating the exchange matrix ... 

  Updating Kohn-Sham eigenvalues, eigenvectors, occupation numbers, and Fermi level.
  Solving generalized eigenproblem
  Updating Kohn-Sham eigenvalues and eigenfunctions.
  Solving real generalised eigenvalue problem by standard LAPACK (fast)
  Determining occupation numbers for Kohn-Sham eigenstates.
  | Chemical potential (Fermi level) in eV                 : -.62337837E+01
  | Error in electron count due to remaining E_F inaccuracy: 0.00000000E+00
  | Maximum occupation number of highest empty state:  0.00E+00

  Highest occupied state (VBM) at     -8.83487942 eV
  | Occupation number:      2.00000000

  Lowest unoccupied state (CBM) at    -3.63268794 eV
  | Occupation number:      0.00000000

  Overall HOMO-LUMO gap:      5.20219149 eV.

  Total energy components:
  | Sum of eigenvalues            :          -0.64935170 Ha         -17.66975885 eV
  | XC energy correction          :           0.33921481 Ha           9.23050466 eV
  | XC potential correction       :           0.00000000 Ha           0.00000000 eV
  | Free-atom electrostatic energy:          -0.56528534 Ha         -15.38219676 eV
  | Hartree energy correction     :           0.05223783 Ha           1.42146356 eV
  | Entropy correction            :           0.00000000 Ha           0.00000000 eV
  | ---------------------------
  | Total energy                  :          -0.82318441 Ha         -22.39998739 eV
  | Total energy, T -> 0          :          -0.82318441 Ha         -22.39998739 eV  <-- do not rely on this value for anything but (periodic) metals
  | Electronic free energy        :          -0.82318441 Ha         -22.39998739 eV

  Derived energy quantities:
  | Kinetic energy                :           0.65991197 Ha          17.95711838 eV
  | Electrostatic energy          :          -1.14388157 Ha         -31.12660111 eV
  | Energy correction for multipole
  | error in Hartree potential    :          -0.00001982 Ha          -0.00053930 eV
  | Sum of eigenvalues per atom                           :          -8.83487942 eV
  | Total energy (T->0) per atom                          :         -11.19999370 eV  <-- do not rely on this value for anything but (periodic) metals
  | Electronic free energy per atom                       :         -11.19999370 eV

  Self-consistency convergence accuracy:
  | Change of charge density      : 0.1914E-05
  | Change of sum of eigenvalues  : -.7536E-04 eV
  | Change of total energy        : 0.2076E-03 eV

  End self-consistency iteration #     7       :  max(cpu_time)    wall_clock(cpu1)
  | Time for this iteration                    :        0.768 s           0.769 s
  | Charge density update                      :        0.136 s           0.135 s
  | Density mixing                             :        0.028 s           0.030 s
  | Hartree multipole update                   :        0.064 s           0.063 s
  | Hartree multipole summation                :        0.256 s           0.257 s
  | Integration                                :        0.272 s           0.269 s
  | Fock matrix evaluation                     :        0.016 s           0.013 s
  | Solution of K.-S. eqns.                    :        0.004 s           0.001 s
  | Total energy evaluation                    :        0.000 s           0.001 s
------------------------------------------------------------

------------------------------------------------------------
          Begin self-consistency iteration #    8

  Date     :  20140812, Time     :  112254.982
------------------------------------------------------------
  Evaluating new KS density.
  Integration grid: deviation in total charge (<rho> - N_e) =   4.440892E-16
  Pulay mixing of updated and previous charge densities.

  Evaluating partitioned Hartree potential by multipole expansion.
  | Analytical far-field extrapolation by fixed multipoles:
  | Hartree multipole sum: apparent total charge =  -0.939933E-07
  Summing up the Hartree potential.
  Time summed over all CPUs for potential: real work        1.031 s, elapsed        1.043 s
  | RMS charge density error from multipole expansion :   0.117286E-03

  Integrating Hamiltonian matrix: batch-based integration.
  Time summed over all CPUs for integration: real work        1.063 s, elapsed        1.086 s
  Evaluating the exchange matrix ... 

  Updating Kohn-Sham eigenvalues, eigenvectors, occupation numbers, and Fermi level.
  Solving generalized eigenproblem
  Updating Kohn-Sham eigenvalues and eigenfunctions.
  Solving real generalised eigenvalue problem by standard LAPACK (fast)
  Determining occupation numbers for Kohn-Sham eigenstates.
  | Chemical potential (Fermi level) in eV                 : -.62337824E+01
  | Error in electron count due to remaining E_F inaccuracy: 0.00000000E+00
  | Maximum occupation number of highest empty state:  0.00E+00

  Highest occupied state (VBM) at     -8.83487785 eV
  | Occupation number:      2.00000000

  Lowest unoccupied state (CBM) at    -3.63268688 eV
  | Occupation number:      0.00000000

  Overall HOMO-LUMO gap:      5.20219096 eV.

  Total energy components:
  | Sum of eigenvalues            :          -0.64935159 Ha         -17.66975569 eV
  | XC energy correction          :           0.33921444 Ha           9.23049449 eV
  | XC potential correction       :           0.00000000 Ha           0.00000000 eV
  | Free-atom electrostatic energy:          -0.56528534 Ha         -15.38219676 eV
  | Hartree energy correction     :           0.05223782 Ha           1.42146336 eV
  | Entropy correction            :           0.00000000 Ha           0.00000000 eV
  | ---------------------------
  | Total energy                  :          -0.82318467 Ha         -22.39999461 eV
  | Total energy, T -> 0          :          -0.82318467 Ha         -22.39999461 eV  <-- do not rely on this value for anything but (periodic) metals
  | Electronic free energy        :          -0.82318467 Ha         -22.39999461 eV

  Derived energy quantities:
  | Kinetic energy                :           0.65991136 Ha          17.95710188 eV
  | Electrostatic energy          :          -1.14388160 Ha         -31.12660201 eV
  | Energy correction for multipole
  | error in Hartree potential    :          -0.00001982 Ha          -0.00053930 eV
  | Sum of eigenvalues per atom                           :          -8.83487785 eV
  | Total energy (T->0) per atom                          :         -11.19999730 eV  <-- do not rely on this value for anything but (periodic) metals
  | Electronic free energy per atom                       :         -11.19999730 eV

  Self-consistency convergence accuracy:
  | Change of charge density      : 0.1065E-06
  | Change of sum of eigenvalues  : 0.3156E-05 eV
  | Change of total energy        : -.7217E-05 eV

  End self-consistency iteration #     8       :  max(cpu_time)    wall_clock(cpu1)
  | Time for this iteration                    :        0.776 s           0.776 s
  | Charge density update                      :        0.136 s           0.137 s
  | Density mixing                             :        0.028 s           0.028 s
  | Hartree multipole update                   :        0.064 s           0.063 s
  | Hartree multipole summation                :        0.264 s           0.262 s
  | Integration                                :        0.272 s           0.272 s
  | Fock matrix evaluation                     :        0.012 s           0.012 s
  | Solution of K.-S. eqns.                    :        0.004 s           0.001 s
  | Total energy evaluation                    :        0.000 s           0.001 s
------------------------------------------------------------

------------------------------------------------------------
          Begin self-consistency iteration #    9

  Date     :  20140812, Time     :  112255.758
------------------------------------------------------------
  Evaluating new KS density.
  Integration grid: deviation in total charge (<rho> - N_e) =   4.440892E-15
  Pulay mixing of updated and previous charge densities.

  Evaluating partitioned Hartree potential by multipole expansion.
  | Analytical far-field extrapolation by fixed multipoles:
  | Hartree multipole sum: apparent total charge =  -0.939933E-07
  Summing up the Hartree potential.
  Time summed over all CPUs for potential: real work        1.030 s, elapsed        1.038 s
  | RMS charge density error from multipole expansion :   0.117286E-03

  Integrating Hamiltonian matrix: batch-based integration.
  Time summed over all CPUs for integration: real work        1.090 s, elapsed        1.096 s
  Evaluating the exchange matrix ... 

  Updating Kohn-Sham eigenvalues, eigenvectors, occupation numbers, and Fermi level.
  Solving generalized eigenproblem
  Updating Kohn-Sham eigenvalues and eigenfunctions.
  Solving real generalised eigenvalue problem by standard LAPACK (fast)
  Determining occupation numbers for Kohn-Sham eigenstates.
  | Chemical potential (Fermi level) in eV                 : -.62337815E+01
  | Error in electron count due to remaining E_F inaccuracy: 0.00000000E+00
  | Maximum occupation number of highest empty state:  0.00E+00

  Highest occupied state (VBM) at     -8.83487699 eV
  | Occupation number:      2.00000000

  Lowest unoccupied state (CBM) at    -3.63268595 eV
  | Occupation number:      0.00000000

  Overall HOMO-LUMO gap:      5.20219104 eV.

  Total energy components:
  | Sum of eigenvalues            :          -0.64935152 Ha         -17.66975399 eV
  | XC energy correction          :           0.33921447 Ha           9.23049550 eV
  | XC potential correction       :           0.00000000 Ha           0.00000000 eV
  | Free-atom electrostatic energy:          -0.56528534 Ha         -15.38219676 eV
  | Hartree energy correction     :           0.05223769 Ha           1.42145980 eV
  | Entropy correction            :           0.00000000 Ha           0.00000000 eV
  | ---------------------------
  | Total energy                  :          -0.82318470 Ha         -22.39999545 eV
  | Total energy, T -> 0          :          -0.82318470 Ha         -22.39999545 eV  <-- do not rely on this value for anything but (periodic) metals
  | Electronic free energy        :          -0.82318470 Ha         -22.39999545 eV

  Derived energy quantities:
  | Kinetic energy                :           0.65991165 Ha          17.95710962 eV
  | Electrostatic energy          :          -1.14388188 Ha         -31.12660956 eV
  | Energy correction for multipole
  | error in Hartree potential    :          -0.00001982 Ha          -0.00053930 eV
  | Sum of eigenvalues per atom                           :          -8.83487699 eV
  | Total energy (T->0) per atom                          :         -11.19999772 eV  <-- do not rely on this value for anything but (periodic) metals
  | Electronic free energy per atom                       :         -11.19999772 eV

  Self-consistency convergence accuracy:
  | Change of charge density      : 0.8661E-07
  | Change of sum of eigenvalues  : 0.1704E-05 eV
  | Change of total energy        : -.8383E-06 eV

  Writing Kohn-Sham eigenvalues.

  State    Occupation    Eigenvalue [Ha]    Eigenvalue [eV]
      1       2.00000          -0.324676           -8.83488
      2       0.00000          -0.133499           -3.63269
      3       0.00000           0.195782            5.32749
      4       0.00000           0.203215            5.52975
      5       0.00000           0.326790            8.89241
      6       0.00000           0.363954            9.90370
      7       0.00000           0.363954            9.90370
      8       0.00000           0.415703           11.31186
      9       0.00000           0.415703           11.31186
     10       0.00000           0.545913           14.85504
     11       0.00000           0.933789           25.40970
     12       0.00000           1.001192           27.24382
     13       0.00000           1.156723           31.47604
     14       0.00000           1.156723           31.47604
     15       0.00000           1.160041           31.56631
     16       0.00000           1.199841           32.64933
     17       0.00000           1.199841           32.64933
     18       0.00000           1.215950           33.08768
     19       0.00000           1.215950           33.08768
     20       0.00000           1.267727           34.49662
     21       0.00000           1.267727           34.49662
     22       0.00000           1.358654           36.97086
     23       0.00000           1.799613           48.96997
     24       0.00000           1.799613           48.96997
     25       0.00000           1.808469           49.21096
     26       0.00000           1.877922           51.10086
     27       0.00000           1.877922           51.10086
     28       0.00000           2.149855           58.50054
     29       0.00000           3.427299           93.26156
     30       0.00000           3.443331           93.69780
     31       0.00000           3.443331           93.69780
     32       0.00000           3.469119           94.39954
     33       0.00000           3.469119           94.39954
     34       0.00000           3.477533           94.62848
     35       0.00000           3.477533           94.62848
     36       0.00000           3.479538           94.68304
     37       0.00000           3.479538           94.68304
     38       0.00000           3.490654           94.98554
     39       0.00000           3.490654           94.98554
     40       0.00000           3.524672           95.91121
     41       0.00000           3.524672           95.91121
     42       0.00000           3.557793           96.81246
     43       0.00000           3.825356          104.09324
     44       0.00000           3.935990          107.10373
     45       0.00000           5.229619          142.30518
     46       0.00000           5.229619          142.30518
     47       0.00000           5.245939          142.74927
     48       0.00000           5.302967          144.30107
     49       0.00000           5.302967          144.30107
     50       0.00000           5.338067          145.25619
     51       0.00000           5.338067          145.25619
     52       0.00000           5.450870          148.32572
     53       0.00000           5.450870          148.32572
     54       0.00000           5.685464          154.70934
     55       0.00000           8.493328          231.11522
     56       0.00000           8.493328          231.11522
     57       0.00000           8.529381          232.09627
     58       0.00000           8.674084          236.03384
     59       0.00000           8.674084          236.03384
     60       0.00000           9.292250          252.85499
     61       0.00000          21.787759          592.87508
     62       0.00000          22.140022          602.46064

  Highest occupied state (VBM) at     -8.83487699 eV
  | Occupation number:      2.00000000

  Lowest unoccupied state (CBM) at    -3.63268595 eV
  | Occupation number:      0.00000000

  Overall HOMO-LUMO gap:      5.20219104 eV.

  Self-consistency cycle converged.

  End self-consistency iteration #     9       :  max(cpu_time)    wall_clock(cpu1)
  | Time for this iteration                    :        0.788 s           0.789 s
  | Charge density update                      :        0.140 s           0.139 s
  | Density mixing                             :        0.036 s           0.033 s
  | Hartree multipole update                   :        0.068 s           0.065 s
  | Hartree multipole summation                :        0.260 s           0.261 s
  | Integration                                :        0.276 s           0.274 s
  | Fock matrix evaluation                     :        0.016 s           0.014 s
  | Solution of K.-S. eqns.                    :        0.004 s           0.001 s
  | Total energy evaluation                    :        0.004 s           0.000 s
------------------------------------------------------------

  Energy and forces in a compact form:
  | Total energy uncorrected      :         -0.223999954451512E+02 eV
  | Total energy corrected        :         -0.223999954451512E+02 eV  <-- do not rely on this value for anything but (periodic) metals
  | Electronic free energy        :         -0.223999954451512E+02 eV

  ------------------------------------ 
  Start decomposition of the XC Energy 
  ------------------------------------ 
  Hartree-Fock part   :          0.339214475 Ha              9.230495500 eV
  ------------------------------------ 
  X Energy            :          0.339214475 Ha              9.230495500 eV
  C Energy GGA        :          0.000000000 Ha              0.000000000 eV
  Total XC Energy     :          0.339214475 Ha              9.230495500 eV
  LDA X and C from self-consistent density 
  X Energy LDA        :         -0.345680438 Ha             -9.406443325 eV
  C Energy LDA        :         -0.074998219 Ha             -2.040805372 eV
  ------------------------------------ 
  End decomposition of the XC Energy 
  ------------------------------------ 
---------------------------------------------
---------------------------------------------
 | MP2 calculation starts ...
---------------------------------------------

  | Note : Resolution of identity applied 
  | Note : Non spin-polarized system 
---------------------------------------------
  | Homo level                                        1
  | Lumo level                                        2
  | Total Number of states                           62
  | Number of k-points                                1
  | Homo-Lumo Gap                            0.19117701 Ha          5.20219104 eV
---------------------------------------------
  The ovlp_3KS matrix takes another      0 MiB x      4 procs =       0.000 GiB.


---------------------------------------------
| Sum of correlation terms 
---------------------------------------------
  | Pair state     1                    :         -2.88598994 eV         -2.88598994 eV

---------------------------------------------
| Correlation energy spectrum 
---------------------------------------------
  |     2    :         -0.13349875        -0.08492391
  |     3    :          0.19578163        -0.00148375
  |     4    :          0.20321466        -0.00535956
  |     5    :          0.32678989        -0.00149261
  |     6    :          0.36395424        -0.00106527
  |     7    :          0.36395424        -0.00106527
  |     8    :          0.41570326        -0.00074026
  |     9    :          0.41570326        -0.00074026
  |    10    :          0.54591280        -0.00064246
  |    11    :          0.93378941        -0.00115867
  |    12    :          1.00119196        -0.00233731
  |    13    :          1.15672312        -0.00012465
  |    14    :          1.15672312        -0.00012465
  |    15    :          1.16004069        -0.00020012
  |    16    :          1.19984079        -0.00009582
  |    17    :          1.19984079        -0.00009582
  |    18    :          1.21594983        -0.00008998
  |    19    :          1.21594983        -0.00008998
  |    20    :          1.26772730        -0.00010668
  |    21    :          1.26772730        -0.00010668
  |    22    :          1.35865412        -0.00020032
  |    23    :          1.79961346        -0.00043037
  |    24    :          1.79961346        -0.00043037
  |    25    :          1.80846947        -0.00045474
  |    26    :          1.87792201        -0.00039118
  |    27    :          1.87792201        -0.00039118
  |    28    :          2.14985538        -0.00029074
  |    29    :          3.42729949        -0.00002922
  |    30    :          3.44333100        -0.00002254
  |    31    :          3.44333100        -0.00002254
  |    32    :          3.46911916        -0.00002023
  |    33    :          3.46911916        -0.00002023
  |    34    :          3.47753273        -0.00001864
  |    35    :          3.47753273        -0.00001864
  |    36    :          3.47953765        -0.00001855
  |    37    :          3.47953765        -0.00001855
  |    38    :          3.49065435        -0.00001957
  |    39    :          3.49065435        -0.00001957
  |    40    :          3.52467233        -0.00002054
  |    41    :          3.52467233        -0.00002054
  |    42    :          3.55779261        -0.00003360
  |    43    :          3.82535623        -0.00024040
  |    44    :          3.93598985        -0.00026472
  |    45    :          5.22961909        -0.00003629
  |    46    :          5.22961909        -0.00003629
  |    47    :          5.24593909        -0.00003701
  |    48    :          5.30296682        -0.00003494
  |    49    :          5.30296683        -0.00003494
  |    50    :          5.33806675        -0.00003464
  |    51    :          5.33806676        -0.00003464
  |    52    :          5.45086989        -0.00003438
  |    53    :          5.45086989        -0.00003438
  |    54    :          5.68546387        -0.00003480
  |    55    :          8.49332814        -0.00004390
  |    56    :          8.49332814        -0.00004390
  |    57    :          8.52938126        -0.00004322
  |    58    :          8.67408412        -0.00004133
  |    59    :          8.67408412        -0.00004133
  |    60    :          9.29224996        -0.00003455
  |    61    :         21.78775881        -0.00000859
  |    62    :         22.14002156        -0.00000828
---------------------------------------------
 
 
 
          ---------------------------------------------
          | MP2 calculation comes to finish ...  
 
          ---------------------------------------------
          | Total time for calculating MP2 correction              :        0.000 s

          ---------------------------------------------

---------------------------------------------
  | HF Energy                      :         -0.82318470 Ha        -22.39999545 eV
  | MP2 correction                 :         -0.10605818 Ha         -2.88598994 eV
---------------------------------------------
  | Total Energy + MP2 correction  :         -0.92924288 Ha        -25.28598538 eV
---------------------------------------------

------------------------------------------------------------------------------
  Final output of selected total energy values:

  The following output summarizes some interesting total energy values
  at the end of a run (AFTER all relaxation, molecular dynamics, etc.).

  | Total energy of the DFT / Hartree-Fock s.c.f. calculation      :            -22.399995445 eV
  | Final zero-broadening corrected energy (caution - metals only) :            -22.399995445 eV
  | Total energy after the post-s.c.f. correlation calculation     :            -25.285985384 eV
  | For reference only, the value of 1 Hartree used in FHI-aims is :             27.211384500 eV

  Before relying on these values, please be sure to understand exactly which
  total energy value is referred to by a given number. Different objects may
  all carry the same name 'total energy'. Definitions:

  Total energy of the DFT / Hartree-Fock s.c.f. calculation:
  | Note that this energy does not include ANY quantities calculated after the
  | s.c.f. cycle, in particular not ANY RPA, MP2, etc. many-body perturbation terms.

  Final zero-broadening corrected energy:
  | For metallic systems only, a broadening of the occupation numbers at the Fermi
  | level can be extrapolated back to zero broadening by an electron-gas inspired
  | formula. For all systems that are not real metals, this value can be
  | meaningless and should be avoided.

  Total energy of the post-s.c.f. correlation calculation        :
  | The actual meaning of this energy depends on the setting for the 'total_energy_method'
  | keyword (MP2, RPA, rPT2, etc). If not sure, compare to the results listed above.

------------------------------------------------------------------------------

  Methods described in the following list of references were used in this FHI-aims run.
  If you publish the results, please make sure to cite these reference if they apply.
  FHI-aims is an academic code, and for our developers (often, Ph.D. students
  and postdocs), scientific credit in the community is essential.
  Thank you for helping us!

  For any use of FHI-aims, please cite:

    Volker Blum, Ralf Gehrke, Felix Hanke, Paula Havu, Ville Havu,
    Xinguo Ren, Karsten Reuter, and Matthias Scheffler,
    "Ab initio molecular simulations with numeric atom-centered orbitals"
    Computer Physics Communications 180, 2175-2196 (2009).
    http://dx.doi.org/10.1016/j.cpc.2009.06.022

  For Hartree-Fock, hybrid functionals, or many-body perturbation theory used in your run, please cite:

    Xinguo Ren, Patrick Rinke, Volker Blum, Juergen Wieferink, Alex Tkatchenko,
    Andrea Sanfilippo, Karsten Reuter, and Matthias Scheffler,
    "Resolution-of-identity approach to Hartree-Fock, hybrid density functionals,
     RPA, MP2, and GW with numeric atom-centered orbital basis functions"
    New Journal of Physics 14, 053020 (2012).
    http://dx.doi.org/10.1088/1367-2630/14/5/053020

  For the NAO-VCC-nZ basis sets used in this calculation, please cite:

    Igor Ying Zhang, Xinguo Ren, Patrick Rinke, Volker Blum, and Matthias Scheffler,
    "Numeric atom-centered-orbital basis sets with valence-correlation consistency from H to Ar"
    New Journal of Physics 15, 123033 (2013).
    http://dx.doi.org/10.1088/1367-2630/15/12/123033

  For the real-space grid partitioning and parallelization used in this calculation, please cite:

    Ville Havu, Volker Blum, Paula Havu, and Matthias Scheffler,
    "Efficient O(N) integration for all-electron electronic
    structure calculation using numerically tabulated basis functions"
    Journal of Computational Physics 228, 8367-8379 (2009).
    http://dx.doi.org/10.1016/j.jcp.2009.08.008

  Of course, there are many other important community references, e.g., those cited in the
  above references. Our list is limited to references that describe implementations in the FHI-aims
  code. The reason is purely practical (length of this list) - please credit others as well.

------------------------------------------------------------
          Leaving FHI-aims.
          Date     :  20140812, Time     :  112256.580

          Computational steps:
          | Number of self-consistency cycles          :            9

          Detailed time accounting                     :  max(cpu_time)    wall_clock(cpu1)
          | Total time                                 :       31.946 s          31.983 s
          | Preparation time                           :        0.148 s           0.168 s
          | Grid partitioning                          :        0.224 s           0.223 s
          | Preloading free-atom quantities on grid    :        0.068 s           0.067 s
          | Free-atom superposition energy             :        0.036 s           0.035 s
          | Total time for integrations                :        2.960 s           2.940 s
          | Product basis setup: Total time            :        0.000 s           0.000 s
          | Product basis: | 3-center integrations     :       23.497 s          23.522 s
          | Product basis: | 2-center integrations     :        0.252 s           0.252 s
          | Product basis: | 2-center linear algebra   :        0.084 s           0.084 s
          | Product basis: | 3-center x 2-center       :        0.028 s           0.024 s
          | Total time evaluating exchange matrix      :        0.124 s           0.111 s
          | Transforming ovlp_3fn to ovlp_3KS          :        0.012 s           0.010 s
          | Total time for solution of K.-S. equations :        0.032 s           0.015 s
          | Total time for density update              :        1.240 s           1.232 s
          | Total time for mixing                      :        0.156 s           0.154 s
          | Total time for Hartree multipole update    :        0.584 s           0.578 s
          | Total time for Hartree multipole sum       :        2.348 s           2.343 s
          | Total time for total energy evaluation     :        0.008 s           0.004 s

          Have a nice day.
------------------------------------------------------------
