  MPI-parallelism will be employed.
------------------------------------------------------------
          Invoking FHI-aims ...
          Version 072414
          Compiled on 2014/08/06 at 00:00:04 on host theobook58.

          When using FHI-aims, please cite the following reference:

          Volker Blum, Ralf Gehrke, Felix Hanke, Paula Havu,
          Ville Havu, Xinguo Ren, Karsten Reuter, and Matthias Scheffler,
          'Ab Initio Molecular Simulations with Numeric Atom-Centered Orbitals: FHI-aims',
          Computer Physics Communications 180, 2175-2196 (2009)

          For any questions about FHI-aims, please visit the aimsclub website
          with its forums and wiki. Contributions to both the forums and the
          wiki are warmly encouraged - they are for you, and everyone is welcome there.

------------------------------------------------------------

  Date     :  20140812, Time     :  112152.049
  Time zero on CPU 1             :   0.160000000000000E-01  s.
  Internal wall clock time zero  :           177074512.049  s.

  Using        4 parallel tasks.
  Task        0 on host theobook58 reporting.
  Task        1 on host theobook58 reporting.
  Task        2 on host theobook58 reporting.
  Task        3 on host theobook58 reporting.

  Performing system and environment tests:
  | Environment variable OMP_NUM_THREADS correctly set to 1.
  | Stacksize not measured: no C compiler
  | Checking for scalapack...
  | No scalapack compiled in.

  Obtaining array dimensions for all initial allocations:
  
  -----------------------------------------------------------------------
  Parsing control.in (first pass over file, find array dimensions only).
  The contents of control.in will be repeated verbatim below
  unless switched off by setting 'verbatim_writeout .false.' .
  in the first line of control.in .
  -----------------------------------------------------------------------
  
  xc                      hf
  total_energy_method     mp2
  relativistic            none
  occupation_type         integer 0.0001
  mixer                   pulay
  n_max_pulay             10
  charge_mix_param        0.6
  sc_iter_limit           600
  sc_accuracy_rho         1E-6
  sc_accuracy_eev         1E-4
  sc_accuracy_etot        1E-6
  override_illconditioning .true.
  charge                  0
  ################################################################################
  #
  #  FHI-aims code project
  # Igor Ying Zhang and Xinguo Ren, Fritz Haber Institute Berlin, 2012
  #
  #  Suggested "NAO-VCC-4Z" defaults for H atom (to be pasted into control.in file)
  #
  #  Please cite:
  #
  #  Igor Ying Zhang, Xinguo Ren, Patrick Rinke, Volker Blum, and Matthias Scheffler,
  #  "Numeric atom-centered-orbital basis sets with valence-correlation consistency from H to Ar"
  #  New Journal of Physics 15, 123033 (2013).
  #  http://dx.doi.org/10.1088/1367-2630/15/12/123033
  #
  ################################################################################
    species        H
  #     set basis set reference for FHI-aims output
      cite_reference NAO-VCC-2013
  #     global species definitions
      nucleus             1
      mass                1.00794
  #
      l_hartree           6
  #
      cut_pot             4.0  2.0  1.0
      basis_dep_cutoff    0e-4
  #
      radial_base         24 7.0
  radial_multiplier               6
      angular_grids       specified
        division   0.1930   50
        division   0.3175  110
        division   0.4293  194
        division   0.5066  302
        division   0.5626  434
        division   0.5922  590
  #      division   0.6227  974
  #      division   0.6868 1202
        outer_grid  770
  #      outer_grid  434
  ################################################################################
  #
  #  Definition of "minimal" basis
  #
  ################################################################################
  #     valence basis states
      valence      1  s   1.
  #     ion occupancy
      ion_occ      1  s   0.5
  ################################################################################
  
  
   basis_acc              1e-04
  #============================================
  # Optimization in      H for       NAO-VCC-4Z
  #============================================
  # (sp) correlation set
   hydro     1     s      1.15655525
   hydro     1     s      1.68684502
   hydro     1     s      2.46027686
   hydro     2     p      2.92145897
   hydro     2     p      4.14501835
   hydro     2     p      5.88102632
  # polarization set
   hydro     3     d      6.41446874
   hydro     3     d      7.67536483
   hydro     4     f     10.80870049
  # (sp) enhanced minimal set
   hydro     1     s      3.58833335
  
  -----------------------------------------------------------------------
  Completed first pass over input file control.in .
  -----------------------------------------------------------------------
  
  
  -----------------------------------------------------------------------
  Parsing geometry.in (first pass over file, find array dimensions only).
  The contents of geometry.in will be repeated verbatim below
  unless switched off by setting 'verbatim_writeout .false.' .
  in the first line of geometry.in .
  -----------------------------------------------------------------------
  
  atom             0.0             0.0             0.0    H
  atom             0.0             0.0             3.0    H
  
  -----------------------------------------------------------------------
  Completed first pass over input file geometry.in .
  -----------------------------------------------------------------------
  

  Basic array size parameters:
  | Number of species                 :        1
  | Number of atoms                   :        2
  | Max. basis fn. angular momentum   :        3
  | Max. atomic/ionic basis occupied n:        1
  | Max. number of basis fn. types    :        2
  | Max. radial fns per species/type  :       10
  | Max. logarithmic grid size        :     1131
  | Max. radial integration grid size :      149
  | Max. angular integration grid size:      770
  | Max. angular grid division number :        8
  | Radial grid for Hartree potential :     1131
  | Number of spin channels           :        1

------------------------------------------------------------
          Reading file control.in.
------------------------------------------------------------
 
  Hartree-Fock calculation starts ...... 
  Attention: this version of Hartree-Fock employs an auxiliary basis. 
 
  MP2 correlation energy calculation will be started after the DFT/HF calculation.
  Non-relativistic treatment of kinetic energy.
  Occupation type: Integer occupation.
  Using pulay charge density mixing.
  Pulay mixing - number of memorized iterations:   10
  Charge density mixing - mixing parameter:     0.6000
  Maximum number of s.-c. iterations  :   600
  Convergence accuracy of self-consistent charge density: 0.1000E-05
  Convergence accuracy of sum of eigenvalues: 0.1000E-03
  Convergence accuracy of total energy: 0.1000E-05
  override_illconditioning: Explicitly overriding any built-in checks for an ill-conditioned overlap matrix.
  *** WARNING: If you use this flag, you should really know what you are doing.
  *** DO NOT keep this flag set by default in all your control.in files.
  Charge =   0.000000E+00: Neutral system requested explicitly.
 
  Reading configuration options for species H                   .
  | Found nuclear charge :   1.0000
  | Found atomic mass :    1.00794000000000      amu
  | Found l_max for Hartree potential  :   6
  | Found cutoff potl. onset [A], width [A], scale factor :    4.00000    2.00000    1.00000
  | Threshold for basis-dependent cutoff potential is   0.000000E+00
  | Found data for basic radial integration grid :    24 points, outermost radius =    7.000 A
  | Found multiplier for basic radial grid :   6
  | Found angular grid specification: user-specified.
  | Specified grid contains     7 separate shells.
  | Check grid settings after all constraints further below.
  | Found free-atom valence shell :  1 s   1.000
  | No ionic wave fns used. Skipping ion_occ.
  | Found basis singularity cutoff : 0.1000E-03
  | Found hydrogenic basis function :  1 s   1.157
  | Found hydrogenic basis function :  1 s   1.687
  | Found hydrogenic basis function :  1 s   2.460
  | Found hydrogenic basis function :  2 p   2.921
  | Found hydrogenic basis function :  2 p   4.145
  | Found hydrogenic basis function :  2 p   5.881
  | Found hydrogenic basis function :  3 d   6.414
  | Found hydrogenic basis function :  3 d   7.675
  | Found hydrogenic basis function :  4 f  10.809
  | Found hydrogenic basis function :  1 s   3.588
  Species H                   : Missing cutoff potential type.
  Defaulting to exp(1/x)/(1-x)^2 type cutoff potential.
  Species H : No 'logarithmic' tag. Using default grid for free atom:
  | Default logarithmic grid data [bohr] : 0.1000E-03 0.1000E+03 0.1012E+01
  Species H                   : Using default innermost maximum threshold i_radial=  2 for radial functions.
  Species H                   : Default cutoff onset for free atom density etc. is infinite
  since the product basis is used (hybrid functionals, Hartree-Fock, GW etc.).
  Species H                   : Basic radial grid will be enhanced according to radial_multiplier =   6, to contain   149 grid points.
 
  Finished reading input file 'control.in'. Consistency checks are next.
 
  Species H: Using default value for prodbas_acc =   1.000000E-02.
  Species H: Using default value max_l_prodbas =     5.
  Target number of points in a grid batch is not set. Defaulting to  100
  Method for grid partitioning is not set. Defaulting to parallel hash+maxmin partitioning.
  Batch size limit is not set. Defaulting to    200
  By default, will store active basis functions for each batch.
  If in need of memory, prune_basis_once .false. can be used to disable this option.
  communication_type for Hartree potential was not specified.
  Defaulting to calc_hartree .
  Pulay mixer: Number of initial linear mixing iterations not set.
  Defaulting to    0 iterations.
  Work space size for distributed Hartree potential not set.
  Defaulting to   0.200000E+03 MB.
  Algorithm-dependent basis array size parameters:
  | n_max_pulay                         :       10
  Calculation of forces was not defined in control.in. No forces will be calculated.
  Geometry relaxation not requested: no relaxation will be performed.
  No accuracy limit for integral partition fn. given. Defaulting to 0.1000E-14.
  No threshold value for u(r) in integrations given. Defaulting to 0.1000E-05.
  No accuracy for occupation numbers given. Defaulting to 0.1000E-07.
  No threshold value for occupation numbers given. Defaulting to 0.0000E+00.
  No accuracy for fermi level given. Defaulting to 0.1000E-19.
  Maximum # of iterations to find E_F not set. Defaulting to  200.
  Preferred method for the eigenvalue solver ('KS_method') not specified in 'control.in'.
  Calling blacs routine to test compilation state
  The best choice would be 'elpa', but your version of FHI-aims is compiled without scalapack support.
  Defaulting to 'lapack_fast' instead (serial solution, time will not improve with more CPUs).
  Will not use alltoall communication since running on < 1024 CPUs.
  Threshold for basis singularities not set.
  Default threshold for basis singularities: 0.1000E-04
  partition_type (choice of integration weights) for integrals was not specified.
  | Using a version of the partition function of Stratmann and coworkers ('stratmann_smoother').
  | At each grid point, the set of atoms used to build the partition table is smoothly restricted to
  | only those atoms whose free-atom density would be non-zero at that grid point.
  Partitioning for Hartree potential was not defined. Using partition_type for integrals.
  | Adjusted default value of keyword multip_moments_threshold to:       0.10000000E-11
  | This value may affect high angular momentum components of the Hartree potential in periodic systems.
  Spin handling was not defined in control.in. Defaulting to unpolarized case.
  Threshold for auxiliary basis singularities not set.
  Default threshold for auxiliary basis singularities: 0.1000E-04
  No q(lm)/r^(l+1) cutoff set for long-range Hartree potential.
  | Using default value of  0.100000E-09 .
  | Verify using the multipole_threshold keyword.
  Defaulting to new monopole extrapolation.
  Density update method: automatic selection selected.
  Default to 1D ("use_logsbt") integrations for auxiliary 2-center integrals.
  Default onset of logarithmic r-grid for SBT is-38.000000000000
  Default onset of logarithmic k-grid for SBT is-25.000000000000
  Default range of logarithmic r- and k-grid for SBT is 45.000000000000
  Default number of logarithmic r- and k-grid for SBT is  4096
------------------------------------------------------------


------------------------------------------------------------
          Reading geometry description geometry.in.
------------------------------------------------------------
  Input structure read successfully.
  The structure contains        2 atoms,  and a total of          2.000 electrons.

  Input geometry:
  | No unit cell requested.
  | Atomic structure:
  |       Atom                x [A]            y [A]            z [A]
  |    1: Species H              0.000000         0.000000         0.000000
  |    2: Species H              0.000000         0.000000         3.000000
  |

  | The smallest distance between any two atoms is         3.00000000 AA.
  |
  | The first atom of this pair is atom number                      1 .
  | The second atom of this pair is atom number                     2 .

  Number of empty states per atom not set in control.in .
  | Since you are using a method that relies on the unoccupied spectrum
  | (MP2,GW,RPA et al.), will use the full Hamiltonian size (see below)
  | as the max. possible number of states (occupied plus empty).

  Structure-dependent array size parameters: 
  | Maximum number of distinct radial functions  :       11
  | Maximum number of basis functions            :       62
  | Number of Kohn-Sham states (occupied + empty):       62
------------------------------------------------------------

------------------------------------------------------------
          Preparing all fixed parts of the calculation.
------------------------------------------------------------
  Determining machine precision:
    2.225073858507201E-308
  Setting up grids for atomic and cluster calculations.

  Creating wave function, potential, and density for free atoms.

  Species: H

  List of occupied orbitals and eigenvalues:
    n    l              occ      energy [Ha]    energy [eV]
    1    0           1.0000        -0.233457        -6.3527

  Creating fixed part of basis set: Ionic, confined, hydrogenic.
 
  H                    hydrogenic:
 
  List of hydrogenic basis orbitals: 
    n    l      effective z      eigenvalue [eV]  inner max. [A]     outer max. [A]     outer radius [A]   
    1    0         1.156555       -18.1992           0.460320           0.460320           5.243229
    1    0         1.686845       -38.7143           0.315118           0.315118           4.932336
    1    0         2.460277       -82.3547           0.215718           0.215718           3.815562
    2    1         2.921459       -29.0309           0.723605           0.723605           5.243229
    2    1         4.145018       -58.4405           0.507614           0.507614           4.813203
    2    1         5.881026      -117.6432           0.360475           0.360475           3.678162
    3    2         6.414469       -62.2013           0.741515           0.741515           4.993004
    3    2         7.675365       -89.0587           0.617279           0.617279           4.583499
    4    3        10.808700       -99.3454           0.778676           0.778676           4.696947
    1    0         3.588333      -175.1887           0.147673           0.147673           2.644120
 

  Adding cutoff potential to free-atom effective potential.
  Creating atomic-like basis functions for current effective potential.

  Species H                   :

  List of atomic basis orbitals and eigenvalues:
    n    l      energy [Ha]    energy [eV]    outer radius [A]
    1    0        -0.233418        -6.3516       5.373006

  Assembling full basis from fixed parts.
  | Species H :   atomic orbital   1 s accepted.
  | Species H :    hydro orbital   1 s accepted.
  | Species H :    hydro orbital   1 s accepted.
  | Species H :    hydro orbital   1 s accepted.
  | Species H :    hydro orbital   1 s accepted.
  | Species H :    hydro orbital   2 p accepted.
  | Species H :    hydro orbital   2 p accepted.
  | Species H :    hydro orbital   2 p accepted.
  | Species H :    hydro orbital   3 d accepted.
  | Species H :    hydro orbital   3 d accepted.
  | Species H :    hydro orbital   4 f accepted.
 
  Basis size parameters after reduction:
  | Total number of radial functions:       11
  | Total number of basis functions :       62
 
  Testing on-site integration grid accuracy.
  |  Species  Function  <phi|h_atom|phi> (log., in eV)  <phi|h_atom|phi> (rad., in eV)
           1        1                 -6.3519216712                 -6.3519215989
           1        2                  8.4716038567                  8.4716058028
           1        3                 58.3749927434                 58.3750109815
           1        4                178.9024737125                178.9026031671
           1        5                456.3642310330                456.3649721232
           1        6                 16.2415699263                 16.2415699338
           1        7                 68.2932618880                 68.2932619123
           1        8                188.3801588017                188.3801587562
           1        9                 49.9849006789                 49.9849006869
           1       10                114.3821731125                114.3821730675
           1       11                 88.0899419283                 88.0899419237

  Preparing densities etc. for the partition functions (integrals / Hartree potential).

  Preparations completed.
  max(cpu_time)          :      0.148 s.
  Wall clock time (cpu1) :      0.170 s.
------------------------------------------------------------

------------------------------------------------------------
          Begin self-consistency loop: Initialization.

          Date     :  20140812, Time     :  112152.223
------------------------------------------------------------

  Initializing index lists of integration centers etc. from given atomic structure:
  | Number of centers in hartree potential         :         2
  | Number of centers in hartree multipole         :         2
  | Number of centers in electron density summation:         2
  | Number of centers in basis integrals           :         2
  | Number of centers in integrals                 :         2
  Partitioning the integration grid into batches with parallel hashing+maxmin method.
  | Number of batches:     1929
  | Maximal batch size:     150
  | Minimal batch size:      65
  | Average batch size:      74.860
  | Standard deviation of batch sizes:      17.247

  Integration load balanced across     4 MPI tasks.
  Work distribution over tasks is as follows:
  Task     0 has      36139 integration points.
  Task     1 has      36102 integration points.
  Task     2 has      36100 integration points.
  Task     3 has      36063 integration points.
  Initializing partition tables, free-atom densities, potentials, etc. across the integration grid (initialize_grid_storage).
  | Original list of interatomic distances with           2 x          2 entries is created.
  | Net number of integration points:   144404
  | of which are non-zero points    :   140264
  Obtaining max. number of non-zero basis functions in each batch (get_n_compute_maxes).
  | Maximal number of non-zero basis functions:       62 in task     0
  | Maximal number of non-zero basis functions:       62 in task     1
  | Maximal number of non-zero basis functions:       62 in task     2
  | Maximal number of non-zero basis functions:       62 in task     3
  Selecting the method for density update.
  Loop over occupied states selected for charge density update.
  Integrating Hamiltonian matrix: batch-based integration.
  Time summed over all CPUs for integration: real work        1.194 s, elapsed        1.220 s
  Integrating overlap matrix.
  Time summed over all CPUs for integration: real work        0.748 s, elapsed        0.755 s

  Updating Kohn-Sham eigenvalues, eigenvectors, occupation numbers, and Fermi level.
  Solving generalized eigenproblem
  Updating Kohn-Sham eigenvalues and eigenfunctions.
  Transforming overlap matrix and checking for singularities.
  Overlap matrix is nonsingular:
  | Lowest eigenvalue:  0.227236E+00
  Solving real generalised eigenvalue problem by standard LAPACK (fast)
  Determining occupation numbers for Kohn-Sham eigenstates.
  | Chemical potential (Fermi level) in eV                 : -.63642724E+01
  | Error in electron count due to remaining E_F inaccuracy: 0.00000000E+00
  | Maximum occupation number of highest empty state:  0.00E+00

  Writing Kohn-Sham eigenvalues.

  State    Occupation    Eigenvalue [Ha]    Eigenvalue [eV]
      1       2.00000          -0.246765           -6.71482
      2       0.00000          -0.221000           -6.01372
      3       0.00000           0.098146            2.67070
      4       0.00000           0.112542            3.06242
      5       0.00000           0.184399            5.01774
      6       0.00000           0.217176            5.90967
      7       0.00000           0.217176            5.90967
      8       0.00000           0.272875            7.42532
      9       0.00000           0.272875            7.42532
     10       0.00000           0.412246           11.21779
     11       0.00000           0.733526           19.96026
     12       0.00000           0.812024           22.09629
     13       0.00000           0.953860           25.95586
     14       0.00000           0.953860           25.95586
     15       0.00000           0.977049           26.58686
     16       0.00000           1.010233           27.48984
     17       0.00000           1.010233           27.48984
     18       0.00000           1.034480           28.14963
     19       0.00000           1.034480           28.14963
     20       0.00000           1.100096           29.93512
     21       0.00000           1.100096           29.93512
     22       0.00000           1.205042           32.79085
     23       0.00000           1.553956           42.28529
     24       0.00000           1.553956           42.28529
     25       0.00000           1.586592           43.17336
     26       0.00000           1.648664           44.86243
     27       0.00000           1.648664           44.86243
     28       0.00000           1.971058           53.63521
     29       0.00000           3.165986           86.15087
     30       0.00000           3.178830           86.50037
     31       0.00000           3.178830           86.50037
     32       0.00000           3.217693           87.55789
     33       0.00000           3.217693           87.55789
     34       0.00000           3.235071           88.03076
     35       0.00000           3.235071           88.03076
     36       0.00000           3.239043           88.13885
     37       0.00000           3.239043           88.13885
     38       0.00000           3.256194           88.60555
     39       0.00000           3.256194           88.60555
     40       0.00000           3.308525           90.02954
     41       0.00000           3.308525           90.02954
     42       0.00000           3.347129           91.08000
     43       0.00000           3.511891           95.56341
     44       0.00000           3.645015           99.18590
     45       0.00000           4.906794          133.52067
     46       0.00000           4.906794          133.52067
     47       0.00000           4.966397          135.14255
     48       0.00000           4.991612          135.82867
     49       0.00000           4.991612          135.82867
     50       0.00000           5.045051          137.28283
     51       0.00000           5.045051          137.28284
     52       0.00000           5.200726          141.51896
     53       0.00000           5.200726          141.51896
     54       0.00000           5.514878          150.06747
     55       0.00000           8.117948          220.90060
     56       0.00000           8.117948          220.90060
     57       0.00000           8.216519          223.58286
     58       0.00000           8.332610          226.74185
     59       0.00000           8.332610          226.74185
     60       0.00000           9.065304          246.67947
     61       0.00000          21.360077          581.23727
     62       0.00000          21.750140          591.85143

  Highest occupied state (VBM) at     -6.71482406 eV
  | Occupation number:      2.00000000

  Lowest unoccupied state (CBM) at    -6.01372067 eV
  | Occupation number:      0.00000000

  Overall HOMO-LUMO gap:      0.70110339 eV.
  Calculating total energy contributions from superposition of free atom densities.

  Total energy components:
  | Sum of eigenvalues            :          -0.49353050 Ha         -13.42964812 eV
  | XC energy correction          :          -0.46687522 Ha         -12.70432105 eV
  | XC potential correction       :           0.60856718 Ha          16.55995553 eV
  | Free-atom electrostatic energy:          -0.56510043 Ha         -15.37716504 eV
  | Hartree energy correction     :           0.00000000 Ha           0.00000000 eV
  | Entropy correction            :           0.00000000 Ha           0.00000000 eV
  | ---------------------------
  | Total energy                  :          -0.91693896 Ha         -24.95117868 eV
  | Total energy, T -> 0          :          -0.91693896 Ha         -24.95117868 eV  <-- do not rely on this value for anything but (periodic) metals
  | Electronic free energy        :          -0.91693896 Ha         -24.95117868 eV

  Derived energy quantities:
  | Kinetic energy                :           0.82634007 Ha          22.48585746 eV
  | Electrostatic energy          :          -1.27640382 Ha         -34.73271510 eV
  | Energy correction for multipole
  | error in Hartree potential    :           0.00000000 Ha           0.00000000 eV
  | Sum of eigenvalues per atom                           :          -6.71482406 eV
  | Total energy (T->0) per atom                          :         -12.47558934 eV  <-- do not rely on this value for anything but (periodic) metals
  | Electronic free energy per atom                       :         -12.47558934 eV
 
 --------------------------------------------
  Constructing auxiliary basis (full product) ...
 
  Product basis:
  | charge radius: extent of product basis function
  | field radius: extent of its Coulomb potential
  | Species   l  charge radius    field radius  multipol momen
  |    H      5     4.813203 A      4.813203 A  2.676041E-15 a.u.
  |    H      4     4.932336 A      4.932336 A  2.417679E-16 a.u.
  |    H      3     5.054418 A      5.054418 A  ************ a.u.
  |    H      4     5.054418 A      5.054418 A  ************ a.u.
  |    H      3     5.116587 A      5.116587 A  1.642688E-15 a.u.
  |    H      2     5.179521 A      5.179521 A  6.126280E-16 a.u.
  |    H      3     5.179521 A      5.179521 A  ************ a.u.
  |    H      2     5.243229 A      5.243229 A  1.485543E-16 a.u.
  |    H      2     5.243229 A      5.243229 A  1.683301E-16 a.u.
  |    H      2     5.243229 A      5.243229 A  ************ a.u.
  |    H      3     5.243229 A      5.243229 A  ************ a.u.
  |    H      1     5.307721 A      5.307721 A  2.416866E-16 a.u.
  |    H      1     5.307721 A      5.307721 A  1.291012E-16 a.u.
  |    H      2     5.307721 A      5.307721 A  7.871382E-16 a.u.
  |    H      0     5.373006 A      5.373006 A  9.519909E-17 a.u.
  |    H      1     5.373006 A      5.373006 A  2.334090E-16 a.u.
  |    H      1     5.373006 A      5.373006 A  ************ a.u.
  |    H      1     5.373006 A      5.373006 A  ************ a.u.
  |    H      1     5.373006 A      5.373006 A  1.823473E-16 a.u.
  |    H      0     5.373006 A      5.439094 A  ************ a.u.
  |    H      0     5.439094 A      5.439094 A  ************ a.u.
  |    H      0     5.439094 A      5.505995 A  9.305319E-17 a.u.
  |    H      0     5.439094 A      5.505995 A  4.082184E-17 a.u.
  |    H      0     5.439094 A      5.505995 A  3.169850E-16 a.u.
  |    H      0     5.439094 A      5.505995 A  2.711689E-16 a.u.
  |    H      5     4.872405 A  1.325110E+02 A           19.619780 a.u.
  |    H      4     5.054418 A  3.771796E+02 A           14.639479 a.u.
  |    H      3     5.243229 A  1.836978E+03 A           11.555842 a.u.
  |    H      2     5.307721 A  2.095310E+04 A            4.940052 a.u.
  |    H      1     5.373006 A  2.512347E+06 A            1.793689 a.u.
  |    H      0     5.439094 A  4.604132E+12 A            0.692368 a.u.

  | Shrink_full_auxil_basis : there are       31  radial auxiliary wave functions
                            accepted and      90 rejected.
  | Shrink_full_auxil_basis : there are totally     286 partial auxiliary wave functions.
 
  | Number of product basis functions per thread :    72
  | Minimal requirement for computer memories :           0.005 Gbs
 
  Basis pair condensation :      1953  -->       1953
 
 ----------------------------------------------------
  Integrating the 3-basis-function Coulomb matrix ...
  | i_atom:            1
  | i_atom:            2
  Integrating the Coulomb interaction matrix for auxiliary basis functions (by atoms)

  SBT integration errors (all should be 'small'):
  large logFT aliasing -> increase N/lnrange
  large SBT aliasing -> decrease lnk0 & increase lnk0+lnrange
  large SBT ringing -> decrease lnr0 & increase lnr0+lnrange
  |            El't  L: logFT-al.   small-k   large-k   small-r   large-r
  Atomic logSBT for 2-center Coulomb matrix    :  max(cpu_time)    wall_clock(cpu1)
  | Multiplication with kernel                 :        0.028 s           0.011 s
  | Main matrix multiplication                 :        0.056 s           0.040 s
  | Analytic angular integration               :        0.000 s           0.003 s
  | Kernel construction                        :        0.008 s           0.002 s
  | Overall 2-center overlap time              :        0.096 s           0.061 s

  Difference of Coulomb matrix to its transposed:  1.3878E-16
  Task     0: Eigenvalues of the Coulomb matrix range from    1.9979E+00 to    2.0629E-03.
  Task     0: Using      286   eigenvalues out of rank      286   Coulomb matrix (auxiliary basis).
 
  Multiplying V^-0.5 x ovlp_3fn (1d-scalapack)

  Initialize hartree_potential_storage
  Max. number of atoms included in rho_multipole:            2

  End scf initialization - timings             :  max(cpu_time)    wall_clock(cpu1)
  | Time for scf. initialization               :       24.546 s          24.572 s
  | Boundary condition initialization          :        0.004 s           0.000 s
  | Integration                                :        0.496 s           0.494 s
  | Solution of K.-S. eqns.                    :        0.008 s           0.005 s
  | Grid partitioning                          :        0.236 s           0.237 s
  | Preloading free-atom quantities on grid    :        0.068 s           0.068 s
  | Free-atom superposition energy             :        0.036 s           0.035 s
  | Total energy evaluation                    :        0.000 s           0.000 s
  | Product basis setup: Total time            :       23.629 s          23.655 s
  | Product basis: | 3-center integrations     :       23.161 s          23.183 s
  | Product basis: | 2-center integrations     :        0.256 s           0.255 s
  | Product basis: | 2-center linear algebra   :        0.084 s           0.084 s
  | Product basis: | 3-center x 2-center       :        0.024 s           0.023 s
------------------------------------------------------------

------------------------------------------------------------
          Begin self-consistency iteration #    1

  Date     :  20140812, Time     :  112216.795
------------------------------------------------------------
  Evaluating new KS density.
  Integration grid: deviation in total charge (<rho> - N_e) =   1.776357E-15
  Pulay mixing of updated and previous charge densities.

  Evaluating partitioned Hartree potential by multipole expansion.
  | Analytical far-field extrapolation by fixed multipoles:
  | Hartree multipole sum: apparent total charge =  -0.893149E-07
  Summing up the Hartree potential.
  Time summed over all CPUs for potential: real work        1.032 s, elapsed        1.037 s
  | RMS charge density error from multipole expansion :   0.472187E-04

  Integrating Hamiltonian matrix: batch-based integration.
  Time summed over all CPUs for integration: real work        1.066 s, elapsed        1.079 s
  Evaluating the exchange matrix ... 

  Updating Kohn-Sham eigenvalues, eigenvectors, occupation numbers, and Fermi level.
  Solving generalized eigenproblem
  Updating Kohn-Sham eigenvalues and eigenfunctions.
  Solving real generalised eigenvalue problem by standard LAPACK (fast)
  Determining occupation numbers for Kohn-Sham eigenstates.
  | Chemical potential (Fermi level) in eV                 : -.59031109E+01
  | Error in electron count due to remaining E_F inaccuracy: 0.00000000E+00
  | Maximum occupation number of highest empty state:  0.00E+00

  Writing Kohn-Sham eigenvalues.

  State    Occupation    Eigenvalue [Ha]    Eigenvalue [eV]
      1       2.00000          -0.320936           -8.73310
      2       0.00000          -0.112935           -3.07312
      3       0.00000           0.197752            5.38109
      4       0.00000           0.207690            5.65153
      5       0.00000           0.335112            9.11886
      6       0.00000           0.365434            9.94398
      7       0.00000           0.365434            9.94398
      8       0.00000           0.432985           11.78213
      9       0.00000           0.432985           11.78213
     10       0.00000           0.584555           15.90656
     11       0.00000           0.936780           25.49109
     12       0.00000           1.020741           27.77577
     13       0.00000           1.148103           31.24147
     14       0.00000           1.148103           31.24147
     15       0.00000           1.174829           31.96873
     16       0.00000           1.206379           32.82725
     17       0.00000           1.206379           32.82725
     18       0.00000           1.232602           33.54079
     19       0.00000           1.232602           33.54079
     20       0.00000           1.305224           35.51696
     21       0.00000           1.305224           35.51696
     22       0.00000           1.428168           38.86244
     23       0.00000           1.820051           49.52611
     24       0.00000           1.820051           49.52611
     25       0.00000           1.857206           50.53715
     26       0.00000           1.915441           52.12179
     27       0.00000           1.915441           52.12179
     28       0.00000           2.241453           60.99304
     29       0.00000           3.428993           93.30766
     30       0.00000           3.439993           93.60698
     31       0.00000           3.439993           93.60698
     32       0.00000           3.479527           94.68275
     33       0.00000           3.479527           94.68275
     34       0.00000           3.496784           95.15234
     35       0.00000           3.496784           95.15234
     36       0.00000           3.500914           95.26472
     37       0.00000           3.500914           95.26472
     38       0.00000           3.519538           95.77150
     39       0.00000           3.519538           95.77150
     40       0.00000           3.574873           97.27723
     41       0.00000           3.574873           97.27723
     42       0.00000           3.622937           98.58513
     43       0.00000           3.864169          105.14939
     44       0.00000           3.993607          108.67159
     45       0.00000           5.242901          142.66660
     46       0.00000           5.242901          142.66660
     47       0.00000           5.304796          144.35085
     48       0.00000           5.327671          144.97332
     49       0.00000           5.327671          144.97332
     50       0.00000           5.381879          146.44837
     51       0.00000           5.381879          146.44837
     52       0.00000           5.540898          150.77552
     53       0.00000           5.540898          150.77552
     54       0.00000           5.863173          159.54507
     55       0.00000           8.533307          232.20311
     56       0.00000           8.533307          232.20311
     57       0.00000           8.634274          234.95055
     58       0.00000           8.748909          238.06993
     59       0.00000           8.748909          238.06993
     60       0.00000           9.485492          258.11338
     61       0.00000          21.862871          594.91900
     62       0.00000          22.253236          605.54137

  Highest occupied state (VBM) at     -8.73310308 eV
  | Occupation number:      2.00000000

  Lowest unoccupied state (CBM) at    -3.07311865 eV
  | Occupation number:      0.00000000

  Overall HOMO-LUMO gap:      5.65998443 eV.

  Total energy components:
  | Sum of eigenvalues            :          -0.64187128 Ha         -17.46620616 eV
  | XC energy correction          :           0.36490516 Ha           9.92957453 eV
  | XC potential correction       :           0.00000000 Ha           0.00000000 eV
  | Free-atom electrostatic energy:          -0.56510043 Ha         -15.37716504 eV
  | Hartree energy correction     :           0.00742721 Ha           0.20210460 eV
  | Entropy correction            :           0.00000000 Ha           0.00000000 eV
  | ---------------------------
  | Total energy                  :          -0.83463934 Ha         -22.71169208 eV
  | Total energy, T -> 0          :          -0.83463934 Ha         -22.71169208 eV  <-- do not rely on this value for anything but (periodic) metals
  | Electronic free energy        :          -0.83463934 Ha         -22.71169208 eV

  Derived energy quantities:
  | Kinetic energy                :           0.78170455 Ha          21.27126302 eV
  | Electrostatic energy          :          -1.25143873 Ha         -34.05338058 eV
  | Energy correction for multipole
  | error in Hartree potential    :          -0.00000635 Ha          -0.00017292 eV
  | Sum of eigenvalues per atom                           :          -8.73310308 eV
  | Total energy (T->0) per atom                          :         -11.35584604 eV  <-- do not rely on this value for anything but (periodic) metals
  | Electronic free energy per atom                       :         -11.35584604 eV

  Self-consistency convergence accuracy:
  | Change of charge density      : 0.1915E-01
  | Change of sum of eigenvalues  : -.4037E+01 eV
  | Change of total energy        : 0.2239E+01 eV

  End self-consistency iteration #     1       :  max(cpu_time)    wall_clock(cpu1)
  | Time for this iteration                    :        0.756 s           0.759 s
  | Charge density update                      :        0.148 s           0.148 s
  | Density mixing                             :        0.000 s           0.003 s
  | Hartree multipole update                   :        0.064 s           0.064 s
  | Hartree multipole summation                :        0.260 s           0.260 s
  | Integration                                :        0.272 s           0.270 s
  | Fock matrix evaluation                     :        0.012 s           0.012 s
  | Solution of K.-S. eqns.                    :        0.000 s           0.001 s
  | Total energy evaluation                    :        0.000 s           0.000 s
------------------------------------------------------------

------------------------------------------------------------
          Begin self-consistency iteration #    2

  Date     :  20140812, Time     :  112217.555
------------------------------------------------------------
  Evaluating new KS density.
  Integration grid: deviation in total charge (<rho> - N_e) =   7.549517E-15
  Pulay mixing of updated and previous charge densities.

  Evaluating partitioned Hartree potential by multipole expansion.
  | Analytical far-field extrapolation by fixed multipoles:
  | Hartree multipole sum: apparent total charge =  -0.994072E-07
  Summing up the Hartree potential.
  Time summed over all CPUs for potential: real work        1.014 s, elapsed        1.026 s
  | RMS charge density error from multipole expansion :   0.181685E-04

  Integrating Hamiltonian matrix: batch-based integration.
  Time summed over all CPUs for integration: real work        1.071 s, elapsed        1.081 s
  Evaluating the exchange matrix ... 

  Updating Kohn-Sham eigenvalues, eigenvectors, occupation numbers, and Fermi level.
  Solving generalized eigenproblem
  Updating Kohn-Sham eigenvalues and eigenfunctions.
  Solving real generalised eigenvalue problem by standard LAPACK (fast)
  Determining occupation numbers for Kohn-Sham eigenstates.
  | Chemical potential (Fermi level) in eV                 : -.57887450E+01
  | Error in electron count due to remaining E_F inaccuracy: 0.00000000E+00
  | Maximum occupation number of highest empty state:  0.00E+00

  Highest occupied state (VBM) at     -8.61892536 eV
  | Occupation number:      2.00000000

  Lowest unoccupied state (CBM) at    -2.95856463 eV
  | Occupation number:      0.00000000

  Overall HOMO-LUMO gap:      5.66036074 eV.

  Total energy components:
  | Sum of eigenvalues            :          -0.63347937 Ha         -17.23785073 eV
  | XC energy correction          :           0.35852745 Ha           9.75602822 eV
  | XC potential correction       :           0.00000000 Ha           0.00000000 eV
  | Free-atom electrostatic energy:          -0.56510043 Ha         -15.37716504 eV
  | Hartree energy correction     :          -0.00980829 Ha          -0.26689712 eV
  | Entropy correction            :           0.00000000 Ha           0.00000000 eV
  | ---------------------------
  | Total energy                  :          -0.84986064 Ha         -23.12588467 eV
  | Total energy, T -> 0          :          -0.84986064 Ha         -23.12588467 eV  <-- do not rely on this value for anything but (periodic) metals
  | Electronic free energy        :          -0.84986064 Ha         -23.12588467 eV

  Derived energy quantities:
  | Kinetic energy                :           0.80129577 Ha          21.80436729 eV
  | Electrostatic energy          :          -1.29262896 Ha         -35.17422375 eV
  | Energy correction for multipole
  | error in Hartree potential    :           0.00000010 Ha           0.00000271 eV
  | Sum of eigenvalues per atom                           :          -8.61892536 eV
  | Total energy (T->0) per atom                          :         -11.56294234 eV  <-- do not rely on this value for anything but (periodic) metals
  | Electronic free energy per atom                       :         -11.56294234 eV

  Self-consistency convergence accuracy:
  | Change of charge density      : 0.3411E-01
  | Change of sum of eigenvalues  : 0.2284E+00 eV
  | Change of total energy        : -.4142E+00 eV

  End self-consistency iteration #     2       :  max(cpu_time)    wall_clock(cpu1)
  | Time for this iteration                    :        0.748 s           0.745 s
  | Charge density update                      :        0.136 s           0.135 s
  | Density mixing                             :        0.004 s           0.004 s
  | Hartree multipole update                   :        0.064 s           0.064 s
  | Hartree multipole summation                :        0.260 s           0.258 s
  | Integration                                :        0.268 s           0.271 s
  | Fock matrix evaluation                     :        0.012 s           0.011 s
  | Solution of K.-S. eqns.                    :        0.004 s           0.002 s
  | Total energy evaluation                    :        0.000 s           0.000 s
------------------------------------------------------------

------------------------------------------------------------
          Begin self-consistency iteration #    3

  Date     :  20140812, Time     :  112218.300
------------------------------------------------------------
  Evaluating new KS density.
  Integration grid: deviation in total charge (<rho> - N_e) =   8.881784E-15
  Pulay mixing of updated and previous charge densities.

  Evaluating partitioned Hartree potential by multipole expansion.
  | Analytical far-field extrapolation by fixed multipoles:
  | Hartree multipole sum: apparent total charge =  -0.905608E-07
  Summing up the Hartree potential.
  Time summed over all CPUs for potential: real work        1.023 s, elapsed        1.034 s
  | RMS charge density error from multipole expansion :   0.129987E-03

  Integrating Hamiltonian matrix: batch-based integration.
  Time summed over all CPUs for integration: real work        1.085 s, elapsed        1.100 s
  Evaluating the exchange matrix ... 

  Updating Kohn-Sham eigenvalues, eigenvectors, occupation numbers, and Fermi level.
  Solving generalized eigenproblem
  Updating Kohn-Sham eigenvalues and eigenfunctions.
  Solving real generalised eigenvalue problem by standard LAPACK (fast)
  Determining occupation numbers for Kohn-Sham eigenstates.
  | Chemical potential (Fermi level) in eV                 : -.61742836E+01
  | Error in electron count due to remaining E_F inaccuracy: 0.00000000E+00
  | Maximum occupation number of highest empty state:  0.00E+00

  Highest occupied state (VBM) at     -9.00353143 eV
  | Occupation number:      2.00000000

  Lowest unoccupied state (CBM) at    -3.34503576 eV
  | Occupation number:      0.00000000

  Overall HOMO-LUMO gap:      5.65849567 eV.

  Total energy components:
  | Sum of eigenvalues            :          -0.66174740 Ha         -18.00706286 eV
  | XC energy correction          :           0.34963802 Ha           9.51413471 eV
  | XC potential correction       :           0.00000000 Ha           0.00000000 eV
  | Free-atom electrostatic energy:          -0.56510043 Ha         -15.37716504 eV
  | Hartree energy correction     :           0.04365105 Ha           1.18780545 eV
  | Entropy correction            :           0.00000000 Ha           0.00000000 eV
  | ---------------------------
  | Total energy                  :          -0.83355875 Ha         -22.68228774 eV
  | Total energy, T -> 0          :          -0.83355875 Ha         -22.68228774 eV  <-- do not rely on this value for anything but (periodic) metals
  | Electronic free energy        :          -0.83355875 Ha         -22.68228774 eV

  Derived energy quantities:
  | Kinetic energy                :           0.66840114 Ha          18.18812036 eV
  | Electrostatic energy          :          -1.15232187 Ha         -31.35627339 eV
  | Energy correction for multipole
  | error in Hartree potential    :          -0.00002332 Ha          -0.00063467 eV
  | Sum of eigenvalues per atom                           :          -9.00353143 eV
  | Total energy (T->0) per atom                          :         -11.34114387 eV  <-- do not rely on this value for anything but (periodic) metals
  | Electronic free energy per atom                       :         -11.34114387 eV

  Self-consistency convergence accuracy:
  | Change of charge density      : 0.4799E-01
  | Change of sum of eigenvalues  : -.7692E+00 eV
  | Change of total energy        : 0.4436E+00 eV

  End self-consistency iteration #     3       :  max(cpu_time)    wall_clock(cpu1)
  | Time for this iteration                    :        0.756 s           0.756 s
  | Charge density update                      :        0.136 s           0.136 s
  | Density mixing                             :        0.008 s           0.008 s
  | Hartree multipole update                   :        0.064 s           0.064 s
  | Hartree multipole summation                :        0.260 s           0.260 s
  | Integration                                :        0.276 s           0.275 s
  | Fock matrix evaluation                     :        0.012 s           0.012 s
  | Solution of K.-S. eqns.                    :        0.000 s           0.001 s
  | Total energy evaluation                    :        0.000 s           0.000 s
------------------------------------------------------------

------------------------------------------------------------
          Begin self-consistency iteration #    4

  Date     :  20140812, Time     :  112219.057
------------------------------------------------------------
  Evaluating new KS density.
  Integration grid: deviation in total charge (<rho> - N_e) =  -2.664535E-15
  Pulay mixing of updated and previous charge densities.

  Evaluating partitioned Hartree potential by multipole expansion.
  | Analytical far-field extrapolation by fixed multipoles:
  | Hartree multipole sum: apparent total charge =  -0.914583E-07
  Summing up the Hartree potential.
  Time summed over all CPUs for potential: real work        1.021 s, elapsed        1.034 s
  | RMS charge density error from multipole expansion :   0.138680E-03

  Integrating Hamiltonian matrix: batch-based integration.
  Time summed over all CPUs for integration: real work        1.073 s, elapsed        1.091 s
  Evaluating the exchange matrix ... 

  Updating Kohn-Sham eigenvalues, eigenvectors, occupation numbers, and Fermi level.
  Solving generalized eigenproblem
  Updating Kohn-Sham eigenvalues and eigenfunctions.
  Solving real generalised eigenvalue problem by standard LAPACK (fast)
  Determining occupation numbers for Kohn-Sham eigenstates.
  | Chemical potential (Fermi level) in eV                 : -.62071321E+01
  | Error in electron count due to remaining E_F inaccuracy: 0.00000000E+00
  | Maximum occupation number of highest empty state:  0.00E+00

  Highest occupied state (VBM) at     -9.03594666 eV
  | Occupation number:      2.00000000

  Lowest unoccupied state (CBM) at    -3.37831756 eV
  | Occupation number:      0.00000000

  Overall HOMO-LUMO gap:      5.65762910 eV.

  Total energy components:
  | Sum of eigenvalues            :          -0.66412987 Ha         -18.07189332 eV
  | XC energy correction          :           0.34696252 Ha           9.44133056 eV
  | XC potential correction       :           0.00000000 Ha           0.00000000 eV
  | Free-atom electrostatic energy:          -0.56510043 Ha         -15.37716504 eV
  | Hartree energy correction     :           0.04806846 Ha           1.30800947 eV
  | Entropy correction            :           0.00000000 Ha           0.00000000 eV
  | ---------------------------
  | Total energy                  :          -0.83419932 Ha         -22.69971833 eV
  | Total energy, T -> 0          :          -0.83419932 Ha         -22.69971833 eV  <-- do not rely on this value for anything but (periodic) metals
  | Electronic free energy        :          -0.83419932 Ha         -22.69971833 eV

  Derived energy quantities:
  | Kinetic energy                :           0.65513206 Ha          17.82705031 eV
  | Electrostatic energy          :          -1.14236885 Ha         -31.08543809 eV
  | Energy correction for multipole
  | error in Hartree potential    :          -0.00002593 Ha          -0.00070563 eV
  | Sum of eigenvalues per atom                           :          -9.03594666 eV
  | Total energy (T->0) per atom                          :         -11.34985917 eV  <-- do not rely on this value for anything but (periodic) metals
  | Electronic free energy per atom                       :         -11.34985917 eV

  Self-consistency convergence accuracy:
  | Change of charge density      : 0.2645E-02
  | Change of sum of eigenvalues  : -.6483E-01 eV
  | Change of total energy        : -.1743E-01 eV

  End self-consistency iteration #     4       :  max(cpu_time)    wall_clock(cpu1)
  | Time for this iteration                    :        0.764 s           0.763 s
  | Charge density update                      :        0.140 s           0.139 s
  | Density mixing                             :        0.012 s           0.012 s
  | Hartree multipole update                   :        0.068 s           0.065 s
  | Hartree multipole summation                :        0.260 s           0.260 s
  | Integration                                :        0.276 s           0.273 s
  | Fock matrix evaluation                     :        0.012 s           0.012 s
  | Solution of K.-S. eqns.                    :        0.004 s           0.001 s
  | Total energy evaluation                    :        0.000 s           0.001 s
------------------------------------------------------------

------------------------------------------------------------
          Begin self-consistency iteration #    5

  Date     :  20140812, Time     :  112219.820
------------------------------------------------------------
  Evaluating new KS density.
  Integration grid: deviation in total charge (<rho> - N_e) =   3.552714E-15
  Pulay mixing of updated and previous charge densities.

  Evaluating partitioned Hartree potential by multipole expansion.
  | Analytical far-field extrapolation by fixed multipoles:
  | Hartree multipole sum: apparent total charge =  -0.912205E-07
  Summing up the Hartree potential.
  Time summed over all CPUs for potential: real work        1.043 s, elapsed        1.063 s
  | RMS charge density error from multipole expansion :   0.138613E-03

  Integrating Hamiltonian matrix: batch-based integration.
  Time summed over all CPUs for integration: real work        1.072 s, elapsed        1.086 s
  Evaluating the exchange matrix ... 

  Updating Kohn-Sham eigenvalues, eigenvectors, occupation numbers, and Fermi level.
  Solving generalized eigenproblem
  Updating Kohn-Sham eigenvalues and eigenfunctions.
  Solving real generalised eigenvalue problem by standard LAPACK (fast)
  Determining occupation numbers for Kohn-Sham eigenstates.
  | Chemical potential (Fermi level) in eV                 : -.62078919E+01
  | Error in electron count due to remaining E_F inaccuracy: 0.00000000E+00
  | Maximum occupation number of highest empty state:  0.00E+00

  Highest occupied state (VBM) at     -9.03668899 eV
  | Occupation number:      2.00000000

  Lowest unoccupied state (CBM) at    -3.37909473 eV
  | Occupation number:      0.00000000

  Overall HOMO-LUMO gap:      5.65759426 eV.

  Total energy components:
  | Sum of eigenvalues            :          -0.66418443 Ha         -18.07337799 eV
  | XC energy correction          :           0.34669031 Ha           9.43392340 eV
  | XC potential correction       :           0.00000000 Ha           0.00000000 eV
  | Free-atom electrostatic energy:          -0.56510043 Ha         -15.37716504 eV
  | Hartree energy correction     :           0.04821376 Ha           1.31196304 eV
  | Entropy correction            :           0.00000000 Ha           0.00000000 eV
  | ---------------------------
  | Total energy                  :          -0.83438079 Ha         -22.70465659 eV
  | Total energy, T -> 0          :          -0.83438079 Ha         -22.70465659 eV  <-- do not rely on this value for anything but (periodic) metals
  | Electronic free energy        :          -0.83438079 Ha         -22.70465659 eV

  Derived energy quantities:
  | Kinetic energy                :           0.65467611 Ha          17.81464328 eV
  | Electrostatic energy          :          -1.14236659 Ha         -31.08537646 eV
  | Energy correction for multipole
  | error in Hartree potential    :          -0.00002608 Ha          -0.00070976 eV
  | Sum of eigenvalues per atom                           :          -9.03668899 eV
  | Total energy (T->0) per atom                          :         -11.35232829 eV  <-- do not rely on this value for anything but (periodic) metals
  | Electronic free energy per atom                       :         -11.35232829 eV

  Self-consistency convergence accuracy:
  | Change of charge density      : 0.1235E-03
  | Change of sum of eigenvalues  : -.1485E-02 eV
  | Change of total energy        : -.4938E-02 eV

  End self-consistency iteration #     5       :  max(cpu_time)    wall_clock(cpu1)
  | Time for this iteration                    :        0.776 s           0.776 s
  | Charge density update                      :        0.140 s           0.140 s
  | Density mixing                             :        0.016 s           0.016 s
  | Hartree multipole update                   :        0.068 s           0.065 s
  | Hartree multipole summation                :        0.268 s           0.267 s
  | Integration                                :        0.272 s           0.271 s
  | Fock matrix evaluation                     :        0.016 s           0.014 s
  | Solution of K.-S. eqns.                    :        0.004 s           0.002 s
  | Total energy evaluation                    :        0.000 s           0.000 s
------------------------------------------------------------

------------------------------------------------------------
          Begin self-consistency iteration #    6

  Date     :  20140812, Time     :  112220.596
------------------------------------------------------------
  Evaluating new KS density.
  Integration grid: deviation in total charge (<rho> - N_e) =   9.769963E-15
  Pulay mixing of updated and previous charge densities.

  Evaluating partitioned Hartree potential by multipole expansion.
  | Analytical far-field extrapolation by fixed multipoles:
  | Hartree multipole sum: apparent total charge =  -0.911786E-07
  Summing up the Hartree potential.
  Time summed over all CPUs for potential: real work        1.024 s, elapsed        1.038 s
  | RMS charge density error from multipole expansion :   0.138336E-03

  Integrating Hamiltonian matrix: batch-based integration.
  Time summed over all CPUs for integration: real work        1.078 s, elapsed        1.097 s
  Evaluating the exchange matrix ... 

  Updating Kohn-Sham eigenvalues, eigenvectors, occupation numbers, and Fermi level.
  Solving generalized eigenproblem
  Updating Kohn-Sham eigenvalues and eigenfunctions.
  Solving real generalised eigenvalue problem by standard LAPACK (fast)
  Determining occupation numbers for Kohn-Sham eigenstates.
  | Chemical potential (Fermi level) in eV                 : -.62069169E+01
  | Error in electron count due to remaining E_F inaccuracy: 0.00000000E+00
  | Maximum occupation number of highest empty state:  0.00E+00

  Highest occupied state (VBM) at     -9.03573231 eV
  | Occupation number:      2.00000000

  Lowest unoccupied state (CBM) at    -3.37810155 eV
  | Occupation number:      0.00000000

  Overall HOMO-LUMO gap:      5.65763076 eV.

  Total energy components:
  | Sum of eigenvalues            :          -0.66411412 Ha         -18.07146463 eV
  | XC energy correction          :           0.34670518 Ha           9.43432786 eV
  | XC potential correction       :           0.00000000 Ha           0.00000000 eV
  | Free-atom electrostatic energy:          -0.56510043 Ha         -15.37716504 eV
  | Hartree energy correction     :           0.04808563 Ha           1.30847650 eV
  | Entropy correction            :           0.00000000 Ha           0.00000000 eV
  | ---------------------------
  | Total energy                  :          -0.83442374 Ha         -22.70582532 eV
  | Total energy, T -> 0          :          -0.83442374 Ha         -22.70582532 eV  <-- do not rely on this value for anything but (periodic) metals
  | Electronic free energy        :          -0.83442374 Ha         -22.70582532 eV

  Derived energy quantities:
  | Kinetic energy                :           0.65495907 Ha          17.82234313 eV
  | Electrostatic energy          :          -1.14267764 Ha         -31.09384059 eV
  | Energy correction for multipole
  | error in Hartree potential    :          -0.00002601 Ha          -0.00070784 eV
  | Sum of eigenvalues per atom                           :          -9.03573231 eV
  | Total energy (T->0) per atom                          :         -11.35291266 eV  <-- do not rely on this value for anything but (periodic) metals
  | Electronic free energy per atom                       :         -11.35291266 eV

  Self-consistency convergence accuracy:
  | Change of charge density      : 0.8634E-04
  | Change of sum of eigenvalues  : 0.1913E-02 eV
  | Change of total energy        : -.1169E-02 eV

  End self-consistency iteration #     6       :  max(cpu_time)    wall_clock(cpu1)
  | Time for this iteration                    :        0.768 s           0.769 s
  | Charge density update                      :        0.136 s           0.136 s
  | Density mixing                             :        0.020 s           0.019 s
  | Hartree multipole update                   :        0.068 s           0.065 s
  | Hartree multipole summation                :        0.260 s           0.260 s
  | Integration                                :        0.276 s           0.275 s
  | Fock matrix evaluation                     :        0.012 s           0.012 s
  | Solution of K.-S. eqns.                    :        0.004 s           0.001 s
  | Total energy evaluation                    :        0.000 s           0.000 s
------------------------------------------------------------

------------------------------------------------------------
          Begin self-consistency iteration #    7

  Date     :  20140812, Time     :  112221.365
------------------------------------------------------------
  Evaluating new KS density.
  Integration grid: deviation in total charge (<rho> - N_e) =  -1.199041E-14
  Pulay mixing of updated and previous charge densities.

  Evaluating partitioned Hartree potential by multipole expansion.
  | Analytical far-field extrapolation by fixed multipoles:
  | Hartree multipole sum: apparent total charge =  -0.911773E-07
  Summing up the Hartree potential.
  Time summed over all CPUs for potential: real work        1.024 s, elapsed        1.042 s
  | RMS charge density error from multipole expansion :   0.138343E-03

  Integrating Hamiltonian matrix: batch-based integration.
  Time summed over all CPUs for integration: real work        1.075 s, elapsed        1.099 s
  Evaluating the exchange matrix ... 

  Updating Kohn-Sham eigenvalues, eigenvectors, occupation numbers, and Fermi level.
  Solving generalized eigenproblem
  Updating Kohn-Sham eigenvalues and eigenfunctions.
  Solving real generalised eigenvalue problem by standard LAPACK (fast)
  Determining occupation numbers for Kohn-Sham eigenstates.
  | Chemical potential (Fermi level) in eV                 : -.62069403E+01
  | Error in electron count due to remaining E_F inaccuracy: 0.00000000E+00
  | Maximum occupation number of highest empty state:  0.00E+00

  Highest occupied state (VBM) at     -9.03576024 eV
  | Occupation number:      2.00000000

  Lowest unoccupied state (CBM) at    -3.37812030 eV
  | Occupation number:      0.00000000

  Overall HOMO-LUMO gap:      5.65763994 eV.

  Total energy components:
  | Sum of eigenvalues            :          -0.66411617 Ha         -18.07152049 eV
  | XC energy correction          :           0.34671092 Ha           9.43448422 eV
  | XC potential correction       :           0.00000000 Ha           0.00000000 eV
  | Free-atom electrostatic energy:          -0.56510043 Ha         -15.37716504 eV
  | Hartree energy correction     :           0.04808850 Ha           1.30855456 eV
  | Entropy correction            :           0.00000000 Ha           0.00000000 eV
  | ---------------------------
  | Total energy                  :          -0.83441718 Ha         -22.70564675 eV
  | Total energy, T -> 0          :          -0.83441718 Ha         -22.70564675 eV  <-- do not rely on this value for anything but (periodic) metals
  | Electronic free energy        :          -0.83441718 Ha         -22.70564675 eV

  Derived energy quantities:
  | Kinetic energy                :           0.65496638 Ha          17.82254191 eV
  | Electrostatic energy          :          -1.14267263 Ha         -31.09370443 eV
  | Energy correction for multipole
  | error in Hartree potential    :          -0.00002602 Ha          -0.00070791 eV
  | Sum of eigenvalues per atom                           :          -9.03576024 eV
  | Total energy (T->0) per atom                          :         -11.35282337 eV  <-- do not rely on this value for anything but (periodic) metals
  | Electronic free energy per atom                       :         -11.35282337 eV

  Self-consistency convergence accuracy:
  | Change of charge density      : 0.1356E-05
  | Change of sum of eigenvalues  : -.5586E-04 eV
  | Change of total energy        : 0.1786E-03 eV

  End self-consistency iteration #     7       :  max(cpu_time)    wall_clock(cpu1)
  | Time for this iteration                    :        0.776 s           0.775 s
  | Charge density update                      :        0.136 s           0.137 s
  | Density mixing                             :        0.024 s           0.023 s
  | Hartree multipole update                   :        0.064 s           0.064 s
  | Hartree multipole summation                :        0.264 s           0.262 s
  | Integration                                :        0.276 s           0.275 s
  | Fock matrix evaluation                     :        0.012 s           0.012 s
  | Solution of K.-S. eqns.                    :        0.004 s           0.001 s
  | Total energy evaluation                    :        0.000 s           0.001 s
------------------------------------------------------------

------------------------------------------------------------
          Begin self-consistency iteration #    8

  Date     :  20140812, Time     :  112222.141
------------------------------------------------------------
  Evaluating new KS density.
  Integration grid: deviation in total charge (<rho> - N_e) =   1.332268E-15
  Pulay mixing of updated and previous charge densities.

  Evaluating partitioned Hartree potential by multipole expansion.
  | Analytical far-field extrapolation by fixed multipoles:
  | Hartree multipole sum: apparent total charge =  -0.911773E-07
  Summing up the Hartree potential.
  Time summed over all CPUs for potential: real work        1.019 s, elapsed        1.023 s
  | RMS charge density error from multipole expansion :   0.138344E-03

  Integrating Hamiltonian matrix: batch-based integration.
  Time summed over all CPUs for integration: real work        1.081 s, elapsed        1.091 s
  Evaluating the exchange matrix ... 

  Updating Kohn-Sham eigenvalues, eigenvectors, occupation numbers, and Fermi level.
  Solving generalized eigenproblem
  Updating Kohn-Sham eigenvalues and eigenfunctions.
  Solving real generalised eigenvalue problem by standard LAPACK (fast)
  Determining occupation numbers for Kohn-Sham eigenstates.
  | Chemical potential (Fermi level) in eV                 : -.62069412E+01
  | Error in electron count due to remaining E_F inaccuracy: 0.00000000E+00
  | Maximum occupation number of highest empty state:  0.00E+00

  Highest occupied state (VBM) at     -9.03576089 eV
  | Occupation number:      2.00000000

  Lowest unoccupied state (CBM) at    -3.37812145 eV
  | Occupation number:      0.00000000

  Overall HOMO-LUMO gap:      5.65763944 eV.

  Total energy components:
  | Sum of eigenvalues            :          -0.66411622 Ha         -18.07152177 eV
  | XC energy correction          :           0.34671057 Ha           9.43447459 eV
  | XC potential correction       :           0.00000000 Ha           0.00000000 eV
  | Free-atom electrostatic energy:          -0.56510043 Ha         -15.37716504 eV
  | Hartree energy correction     :           0.04808875 Ha           1.30856135 eV
  | Entropy correction            :           0.00000000 Ha           0.00000000 eV
  | ---------------------------
  | Total energy                  :          -0.83441733 Ha         -22.70565087 eV
  | Total energy, T -> 0          :          -0.83441733 Ha         -22.70565087 eV  <-- do not rely on this value for anything but (periodic) metals
  | Electronic free energy        :          -0.83441733 Ha         -22.70565087 eV

  Derived energy quantities:
  | Kinetic energy                :           0.65496526 Ha          17.82251164 eV
  | Electrostatic energy          :          -1.14267203 Ha         -31.09368792 eV
  | Energy correction for multipole
  | error in Hartree potential    :          -0.00002602 Ha          -0.00070792 eV
  | Sum of eigenvalues per atom                           :          -9.03576089 eV
  | Total energy (T->0) per atom                          :         -11.35282544 eV  <-- do not rely on this value for anything but (periodic) metals
  | Electronic free energy per atom                       :         -11.35282544 eV

  Self-consistency convergence accuracy:
  | Change of charge density      : 0.1045E-06
  | Change of sum of eigenvalues  : -.1284E-05 eV
  | Change of total energy        : -.4124E-05 eV

  End self-consistency iteration #     8       :  max(cpu_time)    wall_clock(cpu1)
  | Time for this iteration                    :        0.776 s           0.777 s
  | Charge density update                      :        0.136 s           0.138 s
  | Density mixing                             :        0.032 s           0.031 s
  | Hartree multipole update                   :        0.064 s           0.064 s
  | Hartree multipole summation                :        0.256 s           0.257 s
  | Integration                                :        0.272 s           0.273 s
  | Fock matrix evaluation                     :        0.012 s           0.012 s
  | Solution of K.-S. eqns.                    :        0.004 s           0.002 s
  | Total energy evaluation                    :        0.000 s           0.000 s
------------------------------------------------------------

------------------------------------------------------------
          Begin self-consistency iteration #    9

  Date     :  20140812, Time     :  112222.919
------------------------------------------------------------
  Evaluating new KS density.
  Integration grid: deviation in total charge (<rho> - N_e) =   6.217249E-15
  Pulay mixing of updated and previous charge densities.

  Evaluating partitioned Hartree potential by multipole expansion.
  | Analytical far-field extrapolation by fixed multipoles:
  | Hartree multipole sum: apparent total charge =  -0.911773E-07
  Summing up the Hartree potential.
  Time summed over all CPUs for potential: real work        1.029 s, elapsed        1.046 s
  | RMS charge density error from multipole expansion :   0.138344E-03

  Integrating Hamiltonian matrix: batch-based integration.
  Time summed over all CPUs for integration: real work        1.083 s, elapsed        1.091 s
  Evaluating the exchange matrix ... 

  Updating Kohn-Sham eigenvalues, eigenvectors, occupation numbers, and Fermi level.
  Solving generalized eigenproblem
  Updating Kohn-Sham eigenvalues and eigenfunctions.
  Solving real generalised eigenvalue problem by standard LAPACK (fast)
  Determining occupation numbers for Kohn-Sham eigenstates.
  | Chemical potential (Fermi level) in eV                 : -.62069404E+01
  | Error in electron count due to remaining E_F inaccuracy: 0.00000000E+00
  | Maximum occupation number of highest empty state:  0.00E+00

  Highest occupied state (VBM) at     -9.03576018 eV
  | Occupation number:      2.00000000

  Lowest unoccupied state (CBM) at    -3.37812061 eV
  | Occupation number:      0.00000000

  Overall HOMO-LUMO gap:      5.65763956 eV.

  Total energy components:
  | Sum of eigenvalues            :          -0.66411617 Ha         -18.07152035 eV
  | XC energy correction          :           0.34671059 Ha           9.43447521 eV
  | XC potential correction       :           0.00000000 Ha           0.00000000 eV
  | Free-atom electrostatic energy:          -0.56510043 Ha         -15.37716504 eV
  | Hartree energy correction     :           0.04808863 Ha           1.30855826 eV
  | Entropy correction            :           0.00000000 Ha           0.00000000 eV
  | ---------------------------
  | Total energy                  :          -0.83441737 Ha         -22.70565193 eV
  | Total energy, T -> 0          :          -0.83441737 Ha         -22.70565193 eV  <-- do not rely on this value for anything but (periodic) metals
  | Electronic free energy        :          -0.83441737 Ha         -22.70565193 eV

  Derived energy quantities:
  | Kinetic energy                :           0.65496549 Ha          17.82251778 eV
  | Electrostatic energy          :          -1.14267227 Ha         -31.09369450 eV
  | Energy correction for multipole
  | error in Hartree potential    :          -0.00002602 Ha          -0.00070791 eV
  | Sum of eigenvalues per atom                           :          -9.03576018 eV
  | Total energy (T->0) per atom                          :         -11.35282596 eV  <-- do not rely on this value for anything but (periodic) metals
  | Electronic free energy per atom                       :         -11.35282596 eV

  Self-consistency convergence accuracy:
  | Change of charge density      : 0.7072E-07
  | Change of sum of eigenvalues  : 0.1421E-05 eV
  | Change of total energy        : -.1055E-05 eV

  End self-consistency iteration #     9       :  max(cpu_time)    wall_clock(cpu1)
  | Time for this iteration                    :        0.800 s           0.803 s
  | Charge density update                      :        0.136 s           0.136 s
  | Density mixing                             :        0.040 s           0.039 s
  | Hartree multipole update                   :        0.076 s           0.078 s
  | Hartree multipole summation                :        0.264 s           0.263 s
  | Integration                                :        0.272 s           0.273 s
  | Fock matrix evaluation                     :        0.012 s           0.012 s
  | Solution of K.-S. eqns.                    :        0.000 s           0.001 s
  | Total energy evaluation                    :        0.000 s           0.000 s
------------------------------------------------------------

------------------------------------------------------------
          Begin self-consistency iteration #   10

  Date     :  20140812, Time     :  112223.722
------------------------------------------------------------
  Evaluating new KS density.
  Integration grid: deviation in total charge (<rho> - N_e) =   3.552714E-15
  Pulay mixing of updated and previous charge densities.

  Evaluating partitioned Hartree potential by multipole expansion.
  | Analytical far-field extrapolation by fixed multipoles:
  | Hartree multipole sum: apparent total charge =  -0.911773E-07
  Summing up the Hartree potential.
  Time summed over all CPUs for potential: real work        1.019 s, elapsed        1.032 s
  | RMS charge density error from multipole expansion :   0.138344E-03

  Integrating Hamiltonian matrix: batch-based integration.
  Time summed over all CPUs for integration: real work        1.079 s, elapsed        1.090 s
  Evaluating the exchange matrix ... 

  Updating Kohn-Sham eigenvalues, eigenvectors, occupation numbers, and Fermi level.
  Solving generalized eigenproblem
  Updating Kohn-Sham eigenvalues and eigenfunctions.
  Solving real generalised eigenvalue problem by standard LAPACK (fast)
  Determining occupation numbers for Kohn-Sham eigenstates.
  | Chemical potential (Fermi level) in eV                 : -.62069404E+01
  | Error in electron count due to remaining E_F inaccuracy: 0.00000000E+00
  | Maximum occupation number of highest empty state:  0.00E+00

  Highest occupied state (VBM) at     -9.03576020 eV
  | Occupation number:      2.00000000

  Lowest unoccupied state (CBM) at    -3.37812058 eV
  | Occupation number:      0.00000000

  Overall HOMO-LUMO gap:      5.65763962 eV.

  Total energy components:
  | Sum of eigenvalues            :          -0.66411617 Ha         -18.07152040 eV
  | XC energy correction          :           0.34671060 Ha           9.43447537 eV
  | XC potential correction       :           0.00000000 Ha           0.00000000 eV
  | Free-atom electrostatic energy:          -0.56510043 Ha         -15.37716504 eV
  | Hartree energy correction     :           0.04808863 Ha           1.30855828 eV
  | Entropy correction            :           0.00000000 Ha           0.00000000 eV
  | ---------------------------
  | Total energy                  :          -0.83441737 Ha         -22.70565179 eV
  | Total energy, T -> 0          :          -0.83441737 Ha         -22.70565179 eV  <-- do not rely on this value for anything but (periodic) metals
  | Electronic free energy        :          -0.83441737 Ha         -22.70565179 eV

  Derived energy quantities:
  | Kinetic energy                :           0.65496551 Ha          17.82251829 eV
  | Electrostatic energy          :          -1.14267228 Ha         -31.09369472 eV
  | Energy correction for multipole
  | error in Hartree potential    :          -0.00002602 Ha          -0.00070791 eV
  | Sum of eigenvalues per atom                           :          -9.03576020 eV
  | Total energy (T->0) per atom                          :         -11.35282590 eV  <-- do not rely on this value for anything but (periodic) metals
  | Electronic free energy per atom                       :         -11.35282590 eV

  Self-consistency convergence accuracy:
  | Change of charge density      : 0.5048E-08
  | Change of sum of eigenvalues  : -.4613E-07 eV
  | Change of total energy        : 0.1344E-06 eV

  Writing Kohn-Sham eigenvalues.

  State    Occupation    Eigenvalue [Ha]    Eigenvalue [eV]
      1       2.00000          -0.332058           -9.03576
      2       0.00000          -0.124144           -3.37812
      3       0.00000           0.196967            5.35973
      4       0.00000           0.203122            5.52723
      5       0.00000           0.328647            8.94295
      6       0.00000           0.358516            9.75573
      7       0.00000           0.358516            9.75573
      8       0.00000           0.424414           11.54889
      9       0.00000           0.424414           11.54889
     10       0.00000           0.574897           15.64374
     11       0.00000           0.924189           25.14845
     12       0.00000           1.006700           27.39369
     13       0.00000           1.139276           31.00127
     14       0.00000           1.139276           31.00127
     15       0.00000           1.165280           31.70888
     16       0.00000           1.196460           32.55732
     17       0.00000           1.196460           32.55732
     18       0.00000           1.222330           33.26128
     19       0.00000           1.222330           33.26128
     20       0.00000           1.296324           35.27477
     21       0.00000           1.296324           35.27477
     22       0.00000           1.419699           38.63198
     23       0.00000           1.798497           48.93959
     24       0.00000           1.798497           48.93959
     25       0.00000           1.836323           49.96889
     26       0.00000           1.892507           51.49774
     27       0.00000           1.892507           51.49774
     28       0.00000           2.218431           60.36657
     29       0.00000           3.411542           92.83278
     30       0.00000           3.422579           93.13312
     31       0.00000           3.422579           93.13312
     32       0.00000           3.461822           94.20098
     33       0.00000           3.461822           94.20098
     34       0.00000           3.478116           94.64434
     35       0.00000           3.478116           94.64434
     36       0.00000           3.482224           94.75613
     37       0.00000           3.482224           94.75613
     38       0.00000           3.501907           95.29173
     39       0.00000           3.501907           95.29173
     40       0.00000           3.558324           96.82693
     41       0.00000           3.558324           96.82693
     42       0.00000           3.605940           98.12262
     43       0.00000           3.830246          104.22629
     44       0.00000           3.960235          107.76346
     45       0.00000           5.212066          141.82752
     46       0.00000           5.212066          141.82752
     47       0.00000           5.274165          143.51733
     48       0.00000           5.295791          144.10581
     49       0.00000           5.295791          144.10581
     50       0.00000           5.349668          145.57187
     51       0.00000           5.349668          145.57187
     52       0.00000           5.509173          149.91221
     53       0.00000           5.509173          149.91221
     54       0.00000           5.831921          158.69464
     55       0.00000           8.488964          230.99647
     56       0.00000           8.488964          230.99647
     57       0.00000           8.590231          233.75209
     58       0.00000           8.703884          236.84472
     59       0.00000           8.703884          236.84472
     60       0.00000           9.439931          256.87360
     61       0.00000          21.807884          593.42272
     62       0.00000          22.198025          604.03899

  Highest occupied state (VBM) at     -9.03576020 eV
  | Occupation number:      2.00000000

  Lowest unoccupied state (CBM) at    -3.37812058 eV
  | Occupation number:      0.00000000

  Overall HOMO-LUMO gap:      5.65763962 eV.

  Self-consistency cycle converged.

  End self-consistency iteration #    10       :  max(cpu_time)    wall_clock(cpu1)
  | Time for this iteration                    :        0.784 s           0.785 s
  | Charge density update                      :        0.140 s           0.136 s
  | Density mixing                             :        0.040 s           0.037 s
  | Hartree multipole update                   :        0.064 s           0.064 s
  | Hartree multipole summation                :        0.260 s           0.260 s
  | Integration                                :        0.272 s           0.272 s
  | Fock matrix evaluation                     :        0.016 s           0.014 s
  | Solution of K.-S. eqns.                    :        0.000 s           0.001 s
  | Total energy evaluation                    :        0.000 s           0.000 s
------------------------------------------------------------

  Energy and forces in a compact form:
  | Total energy uncorrected      :         -0.227056517931020E+02 eV
  | Total energy corrected        :         -0.227056517931020E+02 eV  <-- do not rely on this value for anything but (periodic) metals
  | Electronic free energy        :         -0.227056517931020E+02 eV

  ------------------------------------ 
  Start decomposition of the XC Energy 
  ------------------------------------ 
  Hartree-Fock part   :          0.346710597 Ha              9.434475370 eV
  ------------------------------------ 
  X Energy            :          0.346710597 Ha              9.434475370 eV
  C Energy GGA        :          0.000000000 Ha              0.000000000 eV
  Total XC Energy     :          0.346710597 Ha              9.434475370 eV
  LDA X and C from self-consistent density 
  X Energy LDA        :         -0.347690306 Ha             -9.461134605 eV
  C Energy LDA        :         -0.075313059 Ha             -2.049372600 eV
  ------------------------------------ 
  End decomposition of the XC Energy 
  ------------------------------------ 
---------------------------------------------
---------------------------------------------
 | MP2 calculation starts ...
---------------------------------------------

  | Note : Resolution of identity applied 
  | Note : Non spin-polarized system 
---------------------------------------------
  | Homo level                                        1
  | Lumo level                                        2
  | Total Number of states                           62
  | Number of k-points                                1
  | Homo-Lumo Gap                            0.20791443 Ha          5.65763962 eV
---------------------------------------------
  The ovlp_3KS matrix takes another      0 MiB x      4 procs =       0.000 GiB.


---------------------------------------------
| Sum of correlation terms 
---------------------------------------------
  | Pair state     1                    :         -2.59196071 eV         -2.59196071 eV

---------------------------------------------
| Correlation energy spectrum 
---------------------------------------------
  |     2    :         -0.12414365        -0.07426764
  |     3    :          0.19696663        -0.00133715
  |     4    :          0.20312191        -0.00527762
  |     5    :          0.32864746        -0.00164872
  |     6    :          0.35851639        -0.00111500
  |     7    :          0.35851639        -0.00111500
  |     8    :          0.42441400        -0.00071195
  |     9    :          0.42441400        -0.00071195
  |    10    :          0.57489681        -0.00059440
  |    11    :          0.92418868        -0.00116005
  |    12    :          1.00669955        -0.00222403
  |    13    :          1.13927589        -0.00013516
  |    14    :          1.13927589        -0.00013516
  |    15    :          1.16528005        -0.00022504
  |    16    :          1.19645969        -0.00009727
  |    17    :          1.19645969        -0.00009727
  |    18    :          1.22232962        -0.00008901
  |    19    :          1.22232962        -0.00008901
  |    20    :          1.29632386        -0.00011311
  |    21    :          1.29632386        -0.00011311
  |    22    :          1.41969911        -0.00024244
  |    23    :          1.79849704        -0.00043204
  |    24    :          1.79849704        -0.00043204
  |    25    :          1.83632288        -0.00044898
  |    26    :          1.89250724        -0.00037927
  |    27    :          1.89250724        -0.00037927
  |    28    :          2.21843072        -0.00026267
  |    29    :          3.41154181        -0.00002879
  |    30    :          3.42257935        -0.00002394
  |    31    :          3.42257935        -0.00002394
  |    32    :          3.46182223        -0.00002078
  |    33    :          3.46182223        -0.00002078
  |    34    :          3.47811559        -0.00001863
  |    35    :          3.47811559        -0.00001863
  |    36    :          3.48222380        -0.00001848
  |    37    :          3.48222380        -0.00001848
  |    38    :          3.50190654        -0.00001976
  |    39    :          3.50190654        -0.00001976
  |    40    :          3.55832431        -0.00002117
  |    41    :          3.55832431        -0.00002117
  |    42    :          3.60594015        -0.00004492
  |    43    :          3.83024575        -0.00023976
  |    44    :          3.96023451        -0.00024866
  |    45    :          5.21206572        -0.00003654
  |    46    :          5.21206572        -0.00003654
  |    47    :          5.27416501        -0.00003703
  |    48    :          5.29579125        -0.00003484
  |    49    :          5.29579126        -0.00003484
  |    50    :          5.34966777        -0.00003433
  |    51    :          5.34966778        -0.00003433
  |    52    :          5.50917259        -0.00003384
  |    53    :          5.50917259        -0.00003384
  |    54    :          5.83192098        -0.00003455
  |    55    :          8.48896429        -0.00004362
  |    56    :          8.48896429        -0.00004362
  |    57    :          8.59023147        -0.00004211
  |    58    :          8.70388354        -0.00004063
  |    59    :          8.70388354        -0.00004063
  |    60    :          9.43993142        -0.00003280
  |    61    :         21.80788417        -0.00000850
  |    62    :         22.19802482        -0.00000817
---------------------------------------------
 
 
 
          ---------------------------------------------
          | MP2 calculation comes to finish ...  
 
          ---------------------------------------------
          | Total time for calculating MP2 correction              :        0.004 s

          ---------------------------------------------

---------------------------------------------
  | HF Energy                      :         -0.83441737 Ha        -22.70565179 eV
  | MP2 correction                 :         -0.09525281 Ha         -2.59196071 eV
---------------------------------------------
  | Total Energy + MP2 correction  :         -0.92967017 Ha        -25.29761250 eV
---------------------------------------------

------------------------------------------------------------------------------
  Final output of selected total energy values:

  The following output summarizes some interesting total energy values
  at the end of a run (AFTER all relaxation, molecular dynamics, etc.).

  | Total energy of the DFT / Hartree-Fock s.c.f. calculation      :            -22.705651793 eV
  | Final zero-broadening corrected energy (caution - metals only) :            -22.705651793 eV
  | Total energy after the post-s.c.f. correlation calculation     :            -25.297612499 eV
  | For reference only, the value of 1 Hartree used in FHI-aims is :             27.211384500 eV

  Before relying on these values, please be sure to understand exactly which
  total energy value is referred to by a given number. Different objects may
  all carry the same name 'total energy'. Definitions:

  Total energy of the DFT / Hartree-Fock s.c.f. calculation:
  | Note that this energy does not include ANY quantities calculated after the
  | s.c.f. cycle, in particular not ANY RPA, MP2, etc. many-body perturbation terms.

  Final zero-broadening corrected energy:
  | For metallic systems only, a broadening of the occupation numbers at the Fermi
  | level can be extrapolated back to zero broadening by an electron-gas inspired
  | formula. For all systems that are not real metals, this value can be
  | meaningless and should be avoided.

  Total energy of the post-s.c.f. correlation calculation        :
  | The actual meaning of this energy depends on the setting for the 'total_energy_method'
  | keyword (MP2, RPA, rPT2, etc). If not sure, compare to the results listed above.

------------------------------------------------------------------------------

  Methods described in the following list of references were used in this FHI-aims run.
  If you publish the results, please make sure to cite these reference if they apply.
  FHI-aims is an academic code, and for our developers (often, Ph.D. students
  and postdocs), scientific credit in the community is essential.
  Thank you for helping us!

  For any use of FHI-aims, please cite:

    Volker Blum, Ralf Gehrke, Felix Hanke, Paula Havu, Ville Havu,
    Xinguo Ren, Karsten Reuter, and Matthias Scheffler,
    "Ab initio molecular simulations with numeric atom-centered orbitals"
    Computer Physics Communications 180, 2175-2196 (2009).
    http://dx.doi.org/10.1016/j.cpc.2009.06.022

  For Hartree-Fock, hybrid functionals, or many-body perturbation theory used in your run, please cite:

    Xinguo Ren, Patrick Rinke, Volker Blum, Juergen Wieferink, Alex Tkatchenko,
    Andrea Sanfilippo, Karsten Reuter, and Matthias Scheffler,
    "Resolution-of-identity approach to Hartree-Fock, hybrid density functionals,
     RPA, MP2, and GW with numeric atom-centered orbital basis functions"
    New Journal of Physics 14, 053020 (2012).
    http://dx.doi.org/10.1088/1367-2630/14/5/053020

  For the NAO-VCC-nZ basis sets used in this calculation, please cite:

    Igor Ying Zhang, Xinguo Ren, Patrick Rinke, Volker Blum, and Matthias Scheffler,
    "Numeric atom-centered-orbital basis sets with valence-correlation consistency from H to Ar"
    New Journal of Physics 15, 123033 (2013).
    http://dx.doi.org/10.1088/1367-2630/15/12/123033

  For the real-space grid partitioning and parallelization used in this calculation, please cite:

    Ville Havu, Volker Blum, Paula Havu, and Matthias Scheffler,
    "Efficient O(N) integration for all-electron electronic
    structure calculation using numerically tabulated basis functions"
    Journal of Computational Physics 228, 8367-8379 (2009).
    http://dx.doi.org/10.1016/j.jcp.2009.08.008

  Of course, there are many other important community references, e.g., those cited in the
  above references. Our list is limited to references that describe implementations in the FHI-aims
  code. The reason is purely practical (length of this list) - please credit others as well.

------------------------------------------------------------
          Leaving FHI-aims.
          Date     :  20140812, Time     :  112224.539

          Computational steps:
          | Number of self-consistency cycles          :           10

          Detailed time accounting                     :  max(cpu_time)    wall_clock(cpu1)
          | Total time                                 :       32.446 s          32.490 s
          | Preparation time                           :        0.148 s           0.170 s
          | Grid partitioning                          :        0.236 s           0.237 s
          | Preloading free-atom quantities on grid    :        0.068 s           0.068 s
          | Free-atom superposition energy             :        0.036 s           0.035 s
          | Total time for integrations                :        3.228 s           3.222 s
          | Product basis setup: Total time            :        0.000 s           0.000 s
          | Product basis: | 3-center integrations     :       23.161 s          23.183 s
          | Product basis: | 2-center integrations     :        0.256 s           0.255 s
          | Product basis: | 2-center linear algebra   :        0.084 s           0.084 s
          | Product basis: | 3-center x 2-center       :        0.024 s           0.023 s
          | Total time evaluating exchange matrix      :        0.128 s           0.123 s
          | Transforming ovlp_3fn to ovlp_3KS          :        0.012 s           0.011 s
          | Total time for solution of K.-S. equations :        0.032 s           0.018 s
          | Total time for density update              :        1.384 s           1.381 s
          | Total time for mixing                      :        0.196 s           0.192 s
          | Total time for Hartree multipole update    :        0.664 s           0.657 s
          | Total time for Hartree multipole sum       :        2.612 s           2.607 s
          | Total time for total energy evaluation     :        0.000 s           0.002 s

          Have a nice day.
------------------------------------------------------------
