  MPI-parallelism will be employed.
------------------------------------------------------------
          Invoking FHI-aims ...
          Version 072414
          Compiled on 2014/08/06 at 00:00:04 on host theobook58.

          When using FHI-aims, please cite the following reference:

          Volker Blum, Ralf Gehrke, Felix Hanke, Paula Havu,
          Ville Havu, Xinguo Ren, Karsten Reuter, and Matthias Scheffler,
          'Ab Initio Molecular Simulations with Numeric Atom-Centered Orbitals: FHI-aims',
          Computer Physics Communications 180, 2175-2196 (2009)

          For any questions about FHI-aims, please visit the aimsclub website
          with its forums and wiki. Contributions to both the forums and the
          wiki are warmly encouraged - they are for you, and everyone is welcome there.

------------------------------------------------------------

  Date     :  20140812, Time     :  112328.399
  Time zero on CPU 1             :   0.160000000000000E-01  s.
  Internal wall clock time zero  :           177074608.399  s.

  Using        4 parallel tasks.
  Task        0 on host theobook58 reporting.
  Task        1 on host theobook58 reporting.
  Task        2 on host theobook58 reporting.
  Task        3 on host theobook58 reporting.

  Performing system and environment tests:
  | Environment variable OMP_NUM_THREADS correctly set to 1.
  | Stacksize not measured: no C compiler
  | Checking for scalapack...
  | No scalapack compiled in.

  Obtaining array dimensions for all initial allocations:
  
  -----------------------------------------------------------------------
  Parsing control.in (first pass over file, find array dimensions only).
  The contents of control.in will be repeated verbatim below
  unless switched off by setting 'verbatim_writeout .false.' .
  in the first line of control.in .
  -----------------------------------------------------------------------
  
  xc                      hf
  total_energy_method     mp2
  relativistic            none
  occupation_type         integer 0.0001
  mixer                   pulay
  n_max_pulay             10
  charge_mix_param        0.6
  sc_iter_limit           600
  sc_accuracy_rho         1E-6
  sc_accuracy_eev         1E-4
  sc_accuracy_etot        1E-6
  override_illconditioning .true.
  charge                  0
  ################################################################################
  #
  #  FHI-aims code project
  # Igor Ying Zhang and Xinguo Ren, Fritz Haber Institute Berlin, 2012
  #
  #  Suggested "NAO-VCC-4Z" defaults for H atom (to be pasted into control.in file)
  #
  #  Please cite:
  #
  #  Igor Ying Zhang, Xinguo Ren, Patrick Rinke, Volker Blum, and Matthias Scheffler,
  #  "Numeric atom-centered-orbital basis sets with valence-correlation consistency from H to Ar"
  #  New Journal of Physics 15, 123033 (2013).
  #  http://dx.doi.org/10.1088/1367-2630/15/12/123033
  #
  ################################################################################
    species        H
  #     set basis set reference for FHI-aims output
      cite_reference NAO-VCC-2013
  #     global species definitions
      nucleus             1
      mass                1.00794
  #
      l_hartree           6
  #
      cut_pot             4.0  2.0  1.0
      basis_dep_cutoff    0e-4
  #
      radial_base         24 7.0
  radial_multiplier               6
      angular_grids       specified
        division   0.1930   50
        division   0.3175  110
        division   0.4293  194
        division   0.5066  302
        division   0.5626  434
        division   0.5922  590
  #      division   0.6227  974
  #      division   0.6868 1202
        outer_grid  770
  #      outer_grid  434
  ################################################################################
  #
  #  Definition of "minimal" basis
  #
  ################################################################################
  #     valence basis states
      valence      1  s   1.
  #     ion occupancy
      ion_occ      1  s   0.5
  ################################################################################
  
  
   basis_acc              1e-04
  #============================================
  # Optimization in      H for       NAO-VCC-4Z
  #============================================
  # (sp) correlation set
   hydro     1     s      1.15655525
   hydro     1     s      1.68684502
   hydro     1     s      2.46027686
   hydro     2     p      2.92145897
   hydro     2     p      4.14501835
   hydro     2     p      5.88102632
  # polarization set
   hydro     3     d      6.41446874
   hydro     3     d      7.67536483
   hydro     4     f     10.80870049
  # (sp) enhanced minimal set
   hydro     1     s      3.58833335
  
  -----------------------------------------------------------------------
  Completed first pass over input file control.in .
  -----------------------------------------------------------------------
  
  
  -----------------------------------------------------------------------
  Parsing geometry.in (first pass over file, find array dimensions only).
  The contents of geometry.in will be repeated verbatim below
  unless switched off by setting 'verbatim_writeout .false.' .
  in the first line of geometry.in .
  -----------------------------------------------------------------------
  
  atom             0.0             0.0             0.0    H
  atom             0.0             0.0             3.6    H
  
  -----------------------------------------------------------------------
  Completed first pass over input file geometry.in .
  -----------------------------------------------------------------------
  

  Basic array size parameters:
  | Number of species                 :        1
  | Number of atoms                   :        2
  | Max. basis fn. angular momentum   :        3
  | Max. atomic/ionic basis occupied n:        1
  | Max. number of basis fn. types    :        2
  | Max. radial fns per species/type  :       10
  | Max. logarithmic grid size        :     1131
  | Max. radial integration grid size :      149
  | Max. angular integration grid size:      770
  | Max. angular grid division number :        8
  | Radial grid for Hartree potential :     1131
  | Number of spin channels           :        1

------------------------------------------------------------
          Reading file control.in.
------------------------------------------------------------
 
  Hartree-Fock calculation starts ...... 
  Attention: this version of Hartree-Fock employs an auxiliary basis. 
 
  MP2 correlation energy calculation will be started after the DFT/HF calculation.
  Non-relativistic treatment of kinetic energy.
  Occupation type: Integer occupation.
  Using pulay charge density mixing.
  Pulay mixing - number of memorized iterations:   10
  Charge density mixing - mixing parameter:     0.6000
  Maximum number of s.-c. iterations  :   600
  Convergence accuracy of self-consistent charge density: 0.1000E-05
  Convergence accuracy of sum of eigenvalues: 0.1000E-03
  Convergence accuracy of total energy: 0.1000E-05
  override_illconditioning: Explicitly overriding any built-in checks for an ill-conditioned overlap matrix.
  *** WARNING: If you use this flag, you should really know what you are doing.
  *** DO NOT keep this flag set by default in all your control.in files.
  Charge =   0.000000E+00: Neutral system requested explicitly.
 
  Reading configuration options for species H                   .
  | Found nuclear charge :   1.0000
  | Found atomic mass :    1.00794000000000      amu
  | Found l_max for Hartree potential  :   6
  | Found cutoff potl. onset [A], width [A], scale factor :    4.00000    2.00000    1.00000
  | Threshold for basis-dependent cutoff potential is   0.000000E+00
  | Found data for basic radial integration grid :    24 points, outermost radius =    7.000 A
  | Found multiplier for basic radial grid :   6
  | Found angular grid specification: user-specified.
  | Specified grid contains     7 separate shells.
  | Check grid settings after all constraints further below.
  | Found free-atom valence shell :  1 s   1.000
  | No ionic wave fns used. Skipping ion_occ.
  | Found basis singularity cutoff : 0.1000E-03
  | Found hydrogenic basis function :  1 s   1.157
  | Found hydrogenic basis function :  1 s   1.687
  | Found hydrogenic basis function :  1 s   2.460
  | Found hydrogenic basis function :  2 p   2.921
  | Found hydrogenic basis function :  2 p   4.145
  | Found hydrogenic basis function :  2 p   5.881
  | Found hydrogenic basis function :  3 d   6.414
  | Found hydrogenic basis function :  3 d   7.675
  | Found hydrogenic basis function :  4 f  10.809
  | Found hydrogenic basis function :  1 s   3.588
  Species H                   : Missing cutoff potential type.
  Defaulting to exp(1/x)/(1-x)^2 type cutoff potential.
  Species H : No 'logarithmic' tag. Using default grid for free atom:
  | Default logarithmic grid data [bohr] : 0.1000E-03 0.1000E+03 0.1012E+01
  Species H                   : Using default innermost maximum threshold i_radial=  2 for radial functions.
  Species H                   : Default cutoff onset for free atom density etc. is infinite
  since the product basis is used (hybrid functionals, Hartree-Fock, GW etc.).
  Species H                   : Basic radial grid will be enhanced according to radial_multiplier =   6, to contain   149 grid points.
 
  Finished reading input file 'control.in'. Consistency checks are next.
 
  Species H: Using default value for prodbas_acc =   1.000000E-02.
  Species H: Using default value max_l_prodbas =     5.
  Target number of points in a grid batch is not set. Defaulting to  100
  Method for grid partitioning is not set. Defaulting to parallel hash+maxmin partitioning.
  Batch size limit is not set. Defaulting to    200
  By default, will store active basis functions for each batch.
  If in need of memory, prune_basis_once .false. can be used to disable this option.
  communication_type for Hartree potential was not specified.
  Defaulting to calc_hartree .
  Pulay mixer: Number of initial linear mixing iterations not set.
  Defaulting to    0 iterations.
  Work space size for distributed Hartree potential not set.
  Defaulting to   0.200000E+03 MB.
  Algorithm-dependent basis array size parameters:
  | n_max_pulay                         :       10
  Calculation of forces was not defined in control.in. No forces will be calculated.
  Geometry relaxation not requested: no relaxation will be performed.
  No accuracy limit for integral partition fn. given. Defaulting to 0.1000E-14.
  No threshold value for u(r) in integrations given. Defaulting to 0.1000E-05.
  No accuracy for occupation numbers given. Defaulting to 0.1000E-07.
  No threshold value for occupation numbers given. Defaulting to 0.0000E+00.
  No accuracy for fermi level given. Defaulting to 0.1000E-19.
  Maximum # of iterations to find E_F not set. Defaulting to  200.
  Preferred method for the eigenvalue solver ('KS_method') not specified in 'control.in'.
  Calling blacs routine to test compilation state
  The best choice would be 'elpa', but your version of FHI-aims is compiled without scalapack support.
  Defaulting to 'lapack_fast' instead (serial solution, time will not improve with more CPUs).
  Will not use alltoall communication since running on < 1024 CPUs.
  Threshold for basis singularities not set.
  Default threshold for basis singularities: 0.1000E-04
  partition_type (choice of integration weights) for integrals was not specified.
  | Using a version of the partition function of Stratmann and coworkers ('stratmann_smoother').
  | At each grid point, the set of atoms used to build the partition table is smoothly restricted to
  | only those atoms whose free-atom density would be non-zero at that grid point.
  Partitioning for Hartree potential was not defined. Using partition_type for integrals.
  | Adjusted default value of keyword multip_moments_threshold to:       0.10000000E-11
  | This value may affect high angular momentum components of the Hartree potential in periodic systems.
  Spin handling was not defined in control.in. Defaulting to unpolarized case.
  Threshold for auxiliary basis singularities not set.
  Default threshold for auxiliary basis singularities: 0.1000E-04
  No q(lm)/r^(l+1) cutoff set for long-range Hartree potential.
  | Using default value of  0.100000E-09 .
  | Verify using the multipole_threshold keyword.
  Defaulting to new monopole extrapolation.
  Density update method: automatic selection selected.
  Default to 1D ("use_logsbt") integrations for auxiliary 2-center integrals.
  Default onset of logarithmic r-grid for SBT is-38.000000000000
  Default onset of logarithmic k-grid for SBT is-25.000000000000
  Default range of logarithmic r- and k-grid for SBT is 45.000000000000
  Default number of logarithmic r- and k-grid for SBT is  4096
------------------------------------------------------------


------------------------------------------------------------
          Reading geometry description geometry.in.
------------------------------------------------------------
  Input structure read successfully.
  The structure contains        2 atoms,  and a total of          2.000 electrons.

  Input geometry:
  | No unit cell requested.
  | Atomic structure:
  |       Atom                x [A]            y [A]            z [A]
  |    1: Species H              0.000000         0.000000         0.000000
  |    2: Species H              0.000000         0.000000         3.600000
  |

  | The smallest distance between any two atoms is         3.60000000 AA.
  |
  | The first atom of this pair is atom number                      1 .
  | The second atom of this pair is atom number                     2 .

  Number of empty states per atom not set in control.in .
  | Since you are using a method that relies on the unoccupied spectrum
  | (MP2,GW,RPA et al.), will use the full Hamiltonian size (see below)
  | as the max. possible number of states (occupied plus empty).

  Structure-dependent array size parameters: 
  | Maximum number of distinct radial functions  :       11
  | Maximum number of basis functions            :       62
  | Number of Kohn-Sham states (occupied + empty):       62
------------------------------------------------------------

------------------------------------------------------------
          Preparing all fixed parts of the calculation.
------------------------------------------------------------
  Determining machine precision:
    2.225073858507201E-308
  Setting up grids for atomic and cluster calculations.

  Creating wave function, potential, and density for free atoms.

  Species: H

  List of occupied orbitals and eigenvalues:
    n    l              occ      energy [Ha]    energy [eV]
    1    0           1.0000        -0.233457        -6.3527

  Creating fixed part of basis set: Ionic, confined, hydrogenic.
 
  H                    hydrogenic:
 
  List of hydrogenic basis orbitals: 
    n    l      effective z      eigenvalue [eV]  inner max. [A]     outer max. [A]     outer radius [A]   
    1    0         1.156555       -18.1992           0.460320           0.460320           5.243229
    1    0         1.686845       -38.7143           0.315118           0.315118           4.932336
    1    0         2.460277       -82.3547           0.215718           0.215718           3.815562
    2    1         2.921459       -29.0309           0.723605           0.723605           5.243229
    2    1         4.145018       -58.4405           0.507614           0.507614           4.813203
    2    1         5.881026      -117.6432           0.360475           0.360475           3.678162
    3    2         6.414469       -62.2013           0.741515           0.741515           4.993004
    3    2         7.675365       -89.0587           0.617279           0.617279           4.583499
    4    3        10.808700       -99.3454           0.778676           0.778676           4.696947
    1    0         3.588333      -175.1887           0.147673           0.147673           2.644120
 

  Adding cutoff potential to free-atom effective potential.
  Creating atomic-like basis functions for current effective potential.

  Species H                   :

  List of atomic basis orbitals and eigenvalues:
    n    l      energy [Ha]    energy [eV]    outer radius [A]
    1    0        -0.233418        -6.3516       5.373006

  Assembling full basis from fixed parts.
  | Species H :   atomic orbital   1 s accepted.
  | Species H :    hydro orbital   1 s accepted.
  | Species H :    hydro orbital   1 s accepted.
  | Species H :    hydro orbital   1 s accepted.
  | Species H :    hydro orbital   1 s accepted.
  | Species H :    hydro orbital   2 p accepted.
  | Species H :    hydro orbital   2 p accepted.
  | Species H :    hydro orbital   2 p accepted.
  | Species H :    hydro orbital   3 d accepted.
  | Species H :    hydro orbital   3 d accepted.
  | Species H :    hydro orbital   4 f accepted.
 
  Basis size parameters after reduction:
  | Total number of radial functions:       11
  | Total number of basis functions :       62
 
  Testing on-site integration grid accuracy.
  |  Species  Function  <phi|h_atom|phi> (log., in eV)  <phi|h_atom|phi> (rad., in eV)
           1        1                 -6.3519216712                 -6.3519215989
           1        2                  8.4716038567                  8.4716058028
           1        3                 58.3749927434                 58.3750109815
           1        4                178.9024737125                178.9026031671
           1        5                456.3642310330                456.3649721232
           1        6                 16.2415699263                 16.2415699338
           1        7                 68.2932618880                 68.2932619123
           1        8                188.3801588017                188.3801587562
           1        9                 49.9849006789                 49.9849006869
           1       10                114.3821731125                114.3821730675
           1       11                 88.0899419283                 88.0899419237

  Preparing densities etc. for the partition functions (integrals / Hartree potential).

  Preparations completed.
  max(cpu_time)          :      0.152 s.
  Wall clock time (cpu1) :      0.184 s.
------------------------------------------------------------

------------------------------------------------------------
          Begin self-consistency loop: Initialization.

          Date     :  20140812, Time     :  112328.587
------------------------------------------------------------

  Initializing index lists of integration centers etc. from given atomic structure:
  | Number of centers in hartree potential         :         2
  | Number of centers in hartree multipole         :         2
  | Number of centers in electron density summation:         2
  | Number of centers in basis integrals           :         2
  | Number of centers in integrals                 :         2
  Partitioning the integration grid into batches with parallel hashing+maxmin method.
  | Number of batches:     1902
  | Maximal batch size:     150
  | Minimal batch size:      65
  | Average batch size:      75.922
  | Standard deviation of batch sizes:      19.107

  Integration load balanced across     4 MPI tasks.
  Work distribution over tasks is as follows:
  Task     0 has      36128 integration points.
  Task     1 has      36042 integration points.
  Task     2 has      36176 integration points.
  Task     3 has      36058 integration points.
  Initializing partition tables, free-atom densities, potentials, etc. across the integration grid (initialize_grid_storage).
  | Original list of interatomic distances with           2 x          2 entries is created.
  | Net number of integration points:   144404
  | of which are non-zero points    :   141260
  Obtaining max. number of non-zero basis functions in each batch (get_n_compute_maxes).
  | Maximal number of non-zero basis functions:       62 in task     0
  | Maximal number of non-zero basis functions:       62 in task     1
  | Maximal number of non-zero basis functions:       62 in task     2
  | Maximal number of non-zero basis functions:       62 in task     3
  Selecting the method for density update.
  Loop over occupied states selected for charge density update.
  Integrating Hamiltonian matrix: batch-based integration.
  Time summed over all CPUs for integration: real work        1.181 s, elapsed        1.213 s
  Integrating overlap matrix.
  Time summed over all CPUs for integration: real work        0.737 s, elapsed        0.751 s

  Updating Kohn-Sham eigenvalues, eigenvectors, occupation numbers, and Fermi level.
  Solving generalized eigenproblem
  Updating Kohn-Sham eigenvalues and eigenfunctions.
  Transforming overlap matrix and checking for singularities.
  Overlap matrix is nonsingular:
  | Lowest eigenvalue:  0.419240E+00
  Solving real generalised eigenvalue problem by standard LAPACK (fast)
  Determining occupation numbers for Kohn-Sham eigenstates.
  | Chemical potential (Fermi level) in eV                 : -.63585331E+01
  | Error in electron count due to remaining E_F inaccuracy: 0.00000000E+00
  | Maximum occupation number of highest empty state:  0.00E+00

  Writing Kohn-Sham eigenvalues.

  State    Occupation    Eigenvalue [Ha]    Eigenvalue [eV]
      1       2.00000          -0.239420           -6.51496
      2       0.00000          -0.227923           -6.20211
      3       0.00000           0.087891            2.39165
      4       0.00000           0.114702            3.12120
      5       0.00000           0.204649            5.56878
      6       0.00000           0.233364            6.35015
      7       0.00000           0.233364            6.35015
      8       0.00000           0.256818            6.98836
      9       0.00000           0.256818            6.98836
     10       0.00000           0.338714            9.21689
     11       0.00000           0.775301           21.09701
     12       0.00000           0.799384           21.75235
     13       0.00000           0.979378           26.65022
     14       0.00000           0.999718           27.20372
     15       0.00000           0.999718           27.20372
     16       0.00000           1.019968           27.75475
     17       0.00000           1.019968           27.75475
     18       0.00000           1.025294           27.89966
     19       0.00000           1.025294           27.89966
     20       0.00000           1.045493           28.44932
     21       0.00000           1.045493           28.44932
     22       0.00000           1.087921           29.60383
     23       0.00000           1.536351           41.80623
     24       0.00000           1.566141           42.61687
     25       0.00000           1.566141           42.61687
     26       0.00000           1.615798           43.96810
     27       0.00000           1.615798           43.96810
     28       0.00000           1.793923           48.81512
     29       0.00000           3.212775           87.42406
     30       0.00000           3.225054           87.75818
     31       0.00000           3.225054           87.75818
     32       0.00000           3.234413           88.01286
     33       0.00000           3.234413           88.01286
     34       0.00000           3.236996           88.08315
     35       0.00000           3.236996           88.08315
     36       0.00000           3.237430           88.09494
     37       0.00000           3.237430           88.09494
     38       0.00000           3.239918           88.16264
     39       0.00000           3.239918           88.16264
     40       0.00000           3.250186           88.44206
     41       0.00000           3.250186           88.44206
     42       0.00000           3.263159           88.79506
     43       0.00000           3.516842           95.69814
     44       0.00000           3.585526           97.56712
     45       0.00000           4.937764          134.36339
     46       0.00000           4.967525          135.17324
     47       0.00000           4.967525          135.17324
     48       0.00000           5.010932          136.35439
     49       0.00000           5.010932          136.35439
     50       0.00000           5.024397          136.72081
     51       0.00000           5.024397          136.72081
     52       0.00000           5.075381          138.10815
     53       0.00000           5.075381          138.10815
     54       0.00000           5.196516          141.40440
     55       0.00000           8.089120          220.11616
     56       0.00000           8.142501          221.56873
     57       0.00000           8.142501          221.56873
     58       0.00000           8.260845          224.78902
     59       0.00000           8.260845          224.78902
     60       0.00000           8.677062          236.11486
     61       0.00000          21.358715          581.20022
     62       0.00000          21.604588          587.89076

  Highest occupied state (VBM) at     -6.51495811 eV
  | Occupation number:      2.00000000

  Lowest unoccupied state (CBM) at    -6.20210814 eV
  | Occupation number:      0.00000000

  Overall HOMO-LUMO gap:      0.31284997 eV.
  Calculating total energy contributions from superposition of free atom densities.

  Total energy components:
  | Sum of eigenvalues            :          -0.47884062 Ha         -13.02991623 eV
  | XC energy correction          :          -0.46561507 Ha         -12.67003067 eV
  | XC potential correction       :           0.60692795 Ha          16.51534976 eV
  | Free-atom electrostatic energy:          -0.56545302 Ha         -15.38675962 eV
  | Hartree energy correction     :           0.00000000 Ha           0.00000000 eV
  | Entropy correction            :           0.00000000 Ha           0.00000000 eV
  | ---------------------------
  | Total energy                  :          -0.90298076 Ha         -24.57135675 eV
  | Total energy, T -> 0          :          -0.90298076 Ha         -24.57135675 eV  <-- do not rely on this value for anything but (periodic) metals
  | Electronic free energy        :          -0.90298076 Ha         -24.57135675 eV

  Derived energy quantities:
  | Kinetic energy                :           0.83880039 Ha          22.82491989 eV
  | Electrostatic energy          :          -1.27616608 Ha         -34.72624597 eV
  | Energy correction for multipole
  | error in Hartree potential    :           0.00000000 Ha           0.00000000 eV
  | Sum of eigenvalues per atom                           :          -6.51495811 eV
  | Total energy (T->0) per atom                          :         -12.28567838 eV  <-- do not rely on this value for anything but (periodic) metals
  | Electronic free energy per atom                       :         -12.28567838 eV
 
 --------------------------------------------
  Constructing auxiliary basis (full product) ...
 
  Product basis:
  | charge radius: extent of product basis function
  | field radius: extent of its Coulomb potential
  | Species   l  charge radius    field radius  multipol momen
  |    H      5     4.813203 A      4.813203 A  2.676041E-15 a.u.
  |    H      4     4.932336 A      4.932336 A  2.417679E-16 a.u.
  |    H      3     5.054418 A      5.054418 A  ************ a.u.
  |    H      4     5.054418 A      5.054418 A  ************ a.u.
  |    H      3     5.116587 A      5.116587 A  1.642688E-15 a.u.
  |    H      2     5.179521 A      5.179521 A  6.126280E-16 a.u.
  |    H      3     5.179521 A      5.179521 A  ************ a.u.
  |    H      2     5.243229 A      5.243229 A  1.485543E-16 a.u.
  |    H      2     5.243229 A      5.243229 A  1.683301E-16 a.u.
  |    H      2     5.243229 A      5.243229 A  ************ a.u.
  |    H      3     5.243229 A      5.243229 A  ************ a.u.
  |    H      1     5.307721 A      5.307721 A  2.416866E-16 a.u.
  |    H      1     5.307721 A      5.307721 A  1.291012E-16 a.u.
  |    H      2     5.307721 A      5.307721 A  7.871382E-16 a.u.
  |    H      0     5.373006 A      5.373006 A  9.519909E-17 a.u.
  |    H      1     5.373006 A      5.373006 A  2.334090E-16 a.u.
  |    H      1     5.373006 A      5.373006 A  ************ a.u.
  |    H      1     5.373006 A      5.373006 A  ************ a.u.
  |    H      1     5.373006 A      5.373006 A  1.823473E-16 a.u.
  |    H      0     5.373006 A      5.439094 A  ************ a.u.
  |    H      0     5.439094 A      5.439094 A  ************ a.u.
  |    H      0     5.439094 A      5.505995 A  9.305319E-17 a.u.
  |    H      0     5.439094 A      5.505995 A  4.082184E-17 a.u.
  |    H      0     5.439094 A      5.505995 A  3.169850E-16 a.u.
  |    H      0     5.439094 A      5.505995 A  2.711689E-16 a.u.
  |    H      5     4.872405 A  1.325110E+02 A           19.619780 a.u.
  |    H      4     5.054418 A  3.771796E+02 A           14.639479 a.u.
  |    H      3     5.243229 A  1.836978E+03 A           11.555842 a.u.
  |    H      2     5.307721 A  2.095310E+04 A            4.940052 a.u.
  |    H      1     5.373006 A  2.512347E+06 A            1.793689 a.u.
  |    H      0     5.439094 A  4.604132E+12 A            0.692368 a.u.

  | Shrink_full_auxil_basis : there are       31  radial auxiliary wave functions
                            accepted and      90 rejected.
  | Shrink_full_auxil_basis : there are totally     286 partial auxiliary wave functions.
 
  | Number of product basis functions per thread :    72
  | Minimal requirement for computer memories :           0.005 Gbs
 
  Basis pair condensation :      1953  -->       1953
 
 ----------------------------------------------------
  Integrating the 3-basis-function Coulomb matrix ...
  | i_atom:            1
  | i_atom:            2
  Integrating the Coulomb interaction matrix for auxiliary basis functions (by atoms)

  SBT integration errors (all should be 'small'):
  large logFT aliasing -> increase N/lnrange
  large SBT aliasing -> decrease lnk0 & increase lnk0+lnrange
  large SBT ringing -> decrease lnr0 & increase lnr0+lnrange
  |            El't  L: logFT-al.   small-k   large-k   small-r   large-r
  Atomic logSBT for 2-center Coulomb matrix    :  max(cpu_time)    wall_clock(cpu1)
  | Multiplication with kernel                 :        0.016 s           0.010 s
  | Main matrix multiplication                 :        0.064 s           0.044 s
  | Analytic angular integration               :        0.016 s           0.000 s
  | Kernel construction                        :        0.004 s           0.001 s
  | Overall 2-center overlap time              :        0.096 s           0.062 s

  Difference of Coulomb matrix to its transposed:  1.1102E-16
  Task     0: Eigenvalues of the Coulomb matrix range from    1.9821E+00 to    1.7797E-02.
  Task     0: Using      286   eigenvalues out of rank      286   Coulomb matrix (auxiliary basis).
 
  Multiplying V^-0.5 x ovlp_3fn (1d-scalapack)

  Initialize hartree_potential_storage
  Max. number of atoms included in rho_multipole:            2

  End scf initialization - timings             :  max(cpu_time)    wall_clock(cpu1)
  | Time for scf. initialization               :       24.634 s          24.657 s
  | Boundary condition initialization          :        0.000 s           0.001 s
  | Integration                                :        0.492 s           0.492 s
  | Solution of K.-S. eqns.                    :        0.008 s           0.007 s
  | Grid partitioning                          :        0.224 s           0.224 s
  | Preloading free-atom quantities on grid    :        0.068 s           0.068 s
  | Free-atom superposition energy             :        0.036 s           0.035 s
  | Total energy evaluation                    :        0.000 s           0.001 s
  | Product basis setup: Total time            :       23.729 s          23.752 s
  | Product basis: | 3-center integrations     :       23.241 s          23.265 s
  | Product basis: | 2-center integrations     :        0.256 s           0.254 s
  | Product basis: | 2-center linear algebra   :        0.092 s           0.092 s
  | Product basis: | 3-center x 2-center       :        0.032 s           0.029 s
------------------------------------------------------------

------------------------------------------------------------
          Begin self-consistency iteration #    1

  Date     :  20140812, Time     :  112353.244
------------------------------------------------------------
  Evaluating new KS density.
  Integration grid: deviation in total charge (<rho> - N_e) =   3.108624E-15
  Pulay mixing of updated and previous charge densities.

  Evaluating partitioned Hartree potential by multipole expansion.
  | Analytical far-field extrapolation by fixed multipoles:
  | Hartree multipole sum: apparent total charge =  -0.100678E-06
  Summing up the Hartree potential.
  Time summed over all CPUs for potential: real work        1.053 s, elapsed        1.101 s
  | RMS charge density error from multipole expansion :   0.242978E-04

  Integrating Hamiltonian matrix: batch-based integration.
  Time summed over all CPUs for integration: real work        1.108 s, elapsed        1.174 s
  Evaluating the exchange matrix ... 

  Updating Kohn-Sham eigenvalues, eigenvectors, occupation numbers, and Fermi level.
  Solving generalized eigenproblem
  Updating Kohn-Sham eigenvalues and eigenfunctions.
  Solving real generalised eigenvalue problem by standard LAPACK (fast)
  Determining occupation numbers for Kohn-Sham eigenstates.
  | Chemical potential (Fermi level) in eV                 : -.59047169E+01
  | Error in electron count due to remaining E_F inaccuracy: 0.00000000E+00
  | Maximum occupation number of highest empty state:  0.00E+00

  Writing Kohn-Sham eigenvalues.

  State    Occupation    Eigenvalue [Ha]    Eigenvalue [eV]
      1       2.00000          -0.298482           -8.12210
      2       0.00000          -0.135507           -3.68733
      3       0.00000           0.190108            5.17310
      4       0.00000           0.209297            5.69527
      5       0.00000           0.347080            9.44453
      6       0.00000           0.382881           10.41873
      7       0.00000           0.382881           10.41873
      8       0.00000           0.413486           11.25152
      9       0.00000           0.413486           11.25152
     10       0.00000           0.504949           13.74035
     11       0.00000           0.977248           26.59226
     12       0.00000           1.006854           27.39788
     13       0.00000           1.174864           31.96967
     14       0.00000           1.194605           32.50685
     15       0.00000           1.194605           32.50685
     16       0.00000           1.216023           33.08967
     17       0.00000           1.216023           33.08967
     18       0.00000           1.221965           33.25135
     19       0.00000           1.221965           33.25135
     20       0.00000           1.244608           33.86750
     21       0.00000           1.244608           33.86750
     22       0.00000           1.292809           35.17912
     23       0.00000           1.803235           49.06852
     24       0.00000           1.831732           49.84396
     25       0.00000           1.831732           49.84396
     26       0.00000           1.882504           51.22553
     27       0.00000           1.882504           51.22553
     28       0.00000           2.064441           56.17630
     29       0.00000           3.475674           94.57791
     30       0.00000           3.486831           94.88150
     31       0.00000           3.486831           94.88150
     32       0.00000           3.496323           95.13980
     33       0.00000           3.496323           95.13980
     34       0.00000           3.498688           95.20414
     35       0.00000           3.498688           95.20414
     36       0.00000           3.499146           95.21662
     37       0.00000           3.499146           95.21662
     38       0.00000           3.502094           95.29683
     39       0.00000           3.502094           95.29683
     40       0.00000           3.513082           95.59583
     41       0.00000           3.513082           95.59583
     42       0.00000           3.527640           95.99197
     43       0.00000           3.869059          105.28244
     44       0.00000           3.939725          107.20537
     45       0.00000           5.274669          143.53105
     46       0.00000           5.304231          144.33547
     47       0.00000           5.304231          144.33547
     48       0.00000           5.347992          145.52625
     49       0.00000           5.347992          145.52626
     50       0.00000           5.361728          145.90006
     51       0.00000           5.361728          145.90006
     52       0.00000           5.414102          147.32520
     53       0.00000           5.414102          147.32520
     54       0.00000           5.538272          150.70404
     55       0.00000           8.506848          231.48312
     56       0.00000           8.559397          232.91304
     57       0.00000           8.559397          232.91304
     58       0.00000           8.678647          236.15800
     59       0.00000           8.678647          236.15800
     60       0.00000           9.098126          247.57261
     61       0.00000          21.863502          594.93617
     62       0.00000          22.110061          601.64537

  Highest occupied state (VBM) at     -8.12210278 eV
  | Occupation number:      2.00000000

  Lowest unoccupied state (CBM) at    -3.68733106 eV
  | Occupation number:      0.00000000

  Overall HOMO-LUMO gap:      4.43477173 eV.

  Total energy components:
  | Sum of eigenvalues            :          -0.59696358 Ha         -16.24420557 eV
  | XC energy correction          :           0.35021906 Ha           9.52994546 eV
  | XC potential correction       :           0.00000000 Ha           0.00000000 eV
  | Free-atom electrostatic energy:          -0.56545302 Ha         -15.38675962 eV
  | Hartree energy correction     :           0.00735758 Ha           0.20020983 eV
  | Entropy correction            :           0.00000000 Ha           0.00000000 eV
  | ---------------------------
  | Total energy                  :          -0.80483997 Ha         -21.90080990 eV
  | Total energy, T -> 0          :          -0.80483997 Ha         -21.90080990 eV  <-- do not rely on this value for anything but (periodic) metals
  | Electronic free energy        :          -0.80483997 Ha         -21.90080990 eV

  Derived energy quantities:
  | Kinetic energy                :           0.80533187 Ha          21.91419503 eV
  | Electrostatic energy          :          -1.25995278 Ha         -34.28505947 eV
  | Energy correction for multipole
  | error in Hartree potential    :          -0.00000217 Ha          -0.00005904 eV
  | Sum of eigenvalues per atom                           :          -8.12210278 eV
  | Total energy (T->0) per atom                          :         -10.95040495 eV  <-- do not rely on this value for anything but (periodic) metals
  | Electronic free energy per atom                       :         -10.95040495 eV

  Self-consistency convergence accuracy:
  | Change of charge density      : 0.1123E-01
  | Change of sum of eigenvalues  : -.3214E+01 eV
  | Change of total energy        : 0.2671E+01 eV

  End self-consistency iteration #     1       :  max(cpu_time)    wall_clock(cpu1)
  | Time for this iteration                    :        0.832 s           0.834 s
  | Charge density update                      :        0.144 s           0.142 s
  | Density mixing                             :        0.004 s           0.002 s
  | Hartree multipole update                   :        0.100 s           0.099 s
  | Hartree multipole summation                :        0.284 s           0.282 s
  | Integration                                :        0.296 s           0.294 s
  | Fock matrix evaluation                     :        0.012 s           0.012 s
  | Solution of K.-S. eqns.                    :        0.000 s           0.001 s
  | Total energy evaluation                    :        0.004 s           0.000 s
------------------------------------------------------------

------------------------------------------------------------
          Begin self-consistency iteration #    2

  Date     :  20140812, Time     :  112354.078
------------------------------------------------------------
  Evaluating new KS density.
  Integration grid: deviation in total charge (<rho> - N_e) =   4.884981E-15
  Pulay mixing of updated and previous charge densities.

  Evaluating partitioned Hartree potential by multipole expansion.
  | Analytical far-field extrapolation by fixed multipoles:
  | Hartree multipole sum: apparent total charge =  -0.106563E-06
  Summing up the Hartree potential.
  Time summed over all CPUs for potential: real work        1.016 s, elapsed        1.042 s
  | RMS charge density error from multipole expansion :   0.132600E-04

  Integrating Hamiltonian matrix: batch-based integration.
  Time summed over all CPUs for integration: real work        1.053 s, elapsed        1.080 s
  Evaluating the exchange matrix ... 

  Updating Kohn-Sham eigenvalues, eigenvectors, occupation numbers, and Fermi level.
  Solving generalized eigenproblem
  Updating Kohn-Sham eigenvalues and eigenfunctions.
  Solving real generalised eigenvalue problem by standard LAPACK (fast)
  Determining occupation numbers for Kohn-Sham eigenstates.
  | Chemical potential (Fermi level) in eV                 : -.58289918E+01
  | Error in electron count due to remaining E_F inaccuracy: 0.00000000E+00
  | Maximum occupation number of highest empty state:  0.00E+00

  Highest occupied state (VBM) at     -8.04344031 eV
  | Occupation number:      2.00000000

  Lowest unoccupied state (CBM) at    -3.61454327 eV
  | Occupation number:      0.00000000

  Overall HOMO-LUMO gap:      4.42889703 eV.

  Total energy components:
  | Sum of eigenvalues            :          -0.59118200 Ha         -16.08688061 eV
  | XC energy correction          :           0.34111761 Ha           9.28228247 eV
  | XC potential correction       :           0.00000000 Ha           0.00000000 eV
  | Free-atom electrostatic energy:          -0.56545302 Ha         -15.38675962 eV
  | Hartree energy correction     :          -0.00380790 Ha          -0.10361826 eV
  | Entropy correction            :           0.00000000 Ha           0.00000000 eV
  | ---------------------------
  | Total energy                  :          -0.81932531 Ha         -22.29497603 eV
  | Total energy, T -> 0          :          -0.81932531 Ha         -22.29497603 eV  <-- do not rely on this value for anything but (periodic) metals
  | Electronic free energy        :          -0.81932531 Ha         -22.29497603 eV

  Derived energy quantities:
  | Kinetic energy                :           0.80477679 Ha          21.89909062 eV
  | Electrostatic energy          :          -1.28298449 Ha         -34.91178418 eV
  | Energy correction for multipole
  | error in Hartree potential    :          -0.00000065 Ha          -0.00001763 eV
  | Sum of eigenvalues per atom                           :          -8.04344031 eV
  | Total energy (T->0) per atom                          :         -11.14748801 eV  <-- do not rely on this value for anything but (periodic) metals
  | Electronic free energy per atom                       :         -11.14748801 eV

  Self-consistency convergence accuracy:
  | Change of charge density      : 0.3295E-01
  | Change of sum of eigenvalues  : 0.1573E+00 eV
  | Change of total energy        : -.3942E+00 eV

  End self-consistency iteration #     2       :  max(cpu_time)    wall_clock(cpu1)
  | Time for this iteration                    :        0.756 s           0.756 s
  | Charge density update                      :        0.136 s           0.137 s
  | Density mixing                             :        0.008 s           0.005 s
  | Hartree multipole update                   :        0.068 s           0.068 s
  | Hartree multipole summation                :        0.264 s           0.261 s
  | Integration                                :        0.268 s           0.271 s
  | Fock matrix evaluation                     :        0.012 s           0.012 s
  | Solution of K.-S. eqns.                    :        0.004 s           0.001 s
  | Total energy evaluation                    :        0.000 s           0.000 s
------------------------------------------------------------

------------------------------------------------------------
          Begin self-consistency iteration #    3

  Date     :  20140812, Time     :  112354.834
------------------------------------------------------------
  Evaluating new KS density.
  Integration grid: deviation in total charge (<rho> - N_e) =   8.881784E-16
  Pulay mixing of updated and previous charge densities.

  Evaluating partitioned Hartree potential by multipole expansion.
  | Analytical far-field extrapolation by fixed multipoles:
  | Hartree multipole sum: apparent total charge =  -0.102425E-06
  Summing up the Hartree potential.
  Time summed over all CPUs for potential: real work        1.043 s, elapsed        1.074 s
  | RMS charge density error from multipole expansion :   0.890708E-04

  Integrating Hamiltonian matrix: batch-based integration.
  Time summed over all CPUs for integration: real work        1.094 s, elapsed        1.138 s
  Evaluating the exchange matrix ... 

  Updating Kohn-Sham eigenvalues, eigenvectors, occupation numbers, and Fermi level.
  Solving generalized eigenproblem
  Updating Kohn-Sham eigenvalues and eigenfunctions.
  Solving real generalised eigenvalue problem by standard LAPACK (fast)
  Determining occupation numbers for Kohn-Sham eigenstates.
  | Chemical potential (Fermi level) in eV                 : -.62548404E+01
  | Error in electron count due to remaining E_F inaccuracy: 0.00000000E+00
  | Maximum occupation number of highest empty state:  0.00E+00

  Highest occupied state (VBM) at     -8.48684456 eV
  | Occupation number:      2.00000000

  Lowest unoccupied state (CBM) at    -4.02283620 eV
  | Occupation number:      0.00000000

  Overall HOMO-LUMO gap:      4.46400836 eV.

  Total energy components:
  | Sum of eigenvalues            :          -0.62377161 Ha         -16.97368912 eV
  | XC energy correction          :           0.33043293 Ha           8.99153738 eV
  | XC potential correction       :           0.00000000 Ha           0.00000000 eV
  | Free-atom electrostatic energy:          -0.56545302 Ha         -15.38675962 eV
  | Hartree energy correction     :           0.05496933 Ha           1.49579166 eV
  | Entropy correction            :           0.00000000 Ha           0.00000000 eV
  | ---------------------------
  | Total energy                  :          -0.80382237 Ha         -21.87311970 eV
  | Total energy, T -> 0          :          -0.80382237 Ha         -21.87311970 eV  <-- do not rely on this value for anything but (periodic) metals
  | Electronic free energy        :          -0.80382237 Ha         -21.87311970 eV

  Derived energy quantities:
  | Kinetic energy                :           0.67753648 Ha          18.43670556 eV
  | Electrostatic energy          :          -1.15092593 Ha         -31.31828789 eV
  | Energy correction for multipole
  | error in Hartree potential    :          -0.00001029 Ha          -0.00027995 eV
  | Sum of eigenvalues per atom                           :          -8.48684456 eV
  | Total energy (T->0) per atom                          :         -10.93655985 eV  <-- do not rely on this value for anything but (periodic) metals
  | Electronic free energy per atom                       :         -10.93655985 eV

  Self-consistency convergence accuracy:
  | Change of charge density      : 0.4017E-01
  | Change of sum of eigenvalues  : -.8868E+00 eV
  | Change of total energy        : 0.4219E+00 eV

  End self-consistency iteration #     3       :  max(cpu_time)    wall_clock(cpu1)
  | Time for this iteration                    :        0.772 s           0.775 s
  | Charge density update                      :        0.132 s           0.134 s
  | Density mixing                             :        0.008 s           0.008 s
  | Hartree multipole update                   :        0.068 s           0.065 s
  | Hartree multipole summation                :        0.272 s           0.270 s
  | Integration                                :        0.284 s           0.285 s
  | Fock matrix evaluation                     :        0.012 s           0.011 s
  | Solution of K.-S. eqns.                    :        0.000 s           0.002 s
  | Total energy evaluation                    :        0.000 s           0.000 s
------------------------------------------------------------

------------------------------------------------------------
          Begin self-consistency iteration #    4

  Date     :  20140812, Time     :  112355.609
------------------------------------------------------------
  Evaluating new KS density.
  Integration grid: deviation in total charge (<rho> - N_e) =   4.440892E-15
  Pulay mixing of updated and previous charge densities.

  Evaluating partitioned Hartree potential by multipole expansion.
  | Analytical far-field extrapolation by fixed multipoles:
  | Hartree multipole sum: apparent total charge =  -0.100295E-06
  Summing up the Hartree potential.
  Time summed over all CPUs for potential: real work        1.032 s, elapsed        1.041 s
  | RMS charge density error from multipole expansion :   0.932746E-04

  Integrating Hamiltonian matrix: batch-based integration.
  Time summed over all CPUs for integration: real work        1.077 s, elapsed        1.097 s
  Evaluating the exchange matrix ... 

  Updating Kohn-Sham eigenvalues, eigenvectors, occupation numbers, and Fermi level.
  Solving generalized eigenproblem
  Updating Kohn-Sham eigenvalues and eigenfunctions.
  Solving real generalised eigenvalue problem by standard LAPACK (fast)
  Determining occupation numbers for Kohn-Sham eigenstates.
  | Chemical potential (Fermi level) in eV                 : -.62700665E+01
  | Error in electron count due to remaining E_F inaccuracy: 0.00000000E+00
  | Maximum occupation number of highest empty state:  0.00E+00

  Highest occupied state (VBM) at     -8.50267363 eV
  | Occupation number:      2.00000000

  Lowest unoccupied state (CBM) at    -4.03745944 eV
  | Occupation number:      0.00000000

  Overall HOMO-LUMO gap:      4.46521419 eV.

  Total energy components:
  | Sum of eigenvalues            :          -0.62493503 Ha         -17.00534726 eV
  | XC energy correction          :           0.32780057 Ha           8.91990737 eV
  | XC potential correction       :           0.00000000 Ha           0.00000000 eV
  | Free-atom electrostatic energy:          -0.56545302 Ha         -15.38675962 eV
  | Hartree energy correction     :           0.05755015 Ha           1.56601921 eV
  | Entropy correction            :           0.00000000 Ha           0.00000000 eV
  | ---------------------------
  | Total energy                  :          -0.80503733 Ha         -21.90618029 eV
  | Total energy, T -> 0          :          -0.80503733 Ha         -21.90618029 eV  <-- do not rely on this value for anything but (periodic) metals
  | Electronic free energy        :          -0.80503733 Ha         -21.90618029 eV

  Derived energy quantities:
  | Kinetic energy                :           0.66975284 Ha          18.22490207 eV
  | Electrostatic energy          :          -1.14698960 Ha         -31.21117498 eV
  | Energy correction for multipole
  | error in Hartree potential    :          -0.00001120 Ha          -0.00030488 eV
  | Sum of eigenvalues per atom                           :          -8.50267363 eV
  | Total energy (T->0) per atom                          :         -10.95309015 eV  <-- do not rely on this value for anything but (periodic) metals
  | Electronic free energy per atom                       :         -10.95309015 eV

  Self-consistency convergence accuracy:
  | Change of charge density      : 0.5805E-03
  | Change of sum of eigenvalues  : -.3166E-01 eV
  | Change of total energy        : -.3306E-01 eV

  End self-consistency iteration #     4       :  max(cpu_time)    wall_clock(cpu1)
  | Time for this iteration                    :        0.760 s           0.760 s
  | Charge density update                      :        0.136 s           0.134 s
  | Density mixing                             :        0.012 s           0.012 s
  | Hartree multipole update                   :        0.064 s           0.064 s
  | Hartree multipole summation                :        0.264 s           0.262 s
  | Integration                                :        0.276 s           0.274 s
  | Fock matrix evaluation                     :        0.012 s           0.012 s
  | Solution of K.-S. eqns.                    :        0.004 s           0.001 s
  | Total energy evaluation                    :        0.000 s           0.000 s
------------------------------------------------------------

------------------------------------------------------------
          Begin self-consistency iteration #    5

  Date     :  20140812, Time     :  112356.369
------------------------------------------------------------
  Evaluating new KS density.
  Integration grid: deviation in total charge (<rho> - N_e) =  -1.554312E-15
  Pulay mixing of updated and previous charge densities.

  Evaluating partitioned Hartree potential by multipole expansion.
  | Analytical far-field extrapolation by fixed multipoles:
  | Hartree multipole sum: apparent total charge =  -0.996846E-07
  Summing up the Hartree potential.
  Time summed over all CPUs for potential: real work        1.029 s, elapsed        1.035 s
  | RMS charge density error from multipole expansion :   0.927289E-04

  Integrating Hamiltonian matrix: batch-based integration.
  Time summed over all CPUs for integration: real work        1.066 s, elapsed        1.101 s
  Evaluating the exchange matrix ... 

  Updating Kohn-Sham eigenvalues, eigenvectors, occupation numbers, and Fermi level.
  Solving generalized eigenproblem
  Updating Kohn-Sham eigenvalues and eigenfunctions.
  Solving real generalised eigenvalue problem by standard LAPACK (fast)
  Determining occupation numbers for Kohn-Sham eigenstates.
  | Chemical potential (Fermi level) in eV                 : -.62664130E+01
  | Error in electron count due to remaining E_F inaccuracy: 0.00000000E+00
  | Maximum occupation number of highest empty state:  0.00E+00

  Highest occupied state (VBM) at     -8.49894502 eV
  | Occupation number:      2.00000000

  Lowest unoccupied state (CBM) at    -4.03388106 eV
  | Occupation number:      0.00000000

  Overall HOMO-LUMO gap:      4.46506396 eV.

  Total energy components:
  | Sum of eigenvalues            :          -0.62466098 Ha         -16.99789004 eV
  | XC energy correction          :           0.32769306 Ha           8.91698181 eV
  | XC potential correction       :           0.00000000 Ha           0.00000000 eV
  | Free-atom electrostatic energy:          -0.56545302 Ha         -15.38675962 eV
  | Hartree energy correction     :           0.05713696 Ha           1.55477582 eV
  | Entropy correction            :           0.00000000 Ha           0.00000000 eV
  | ---------------------------
  | Total energy                  :          -0.80528398 Ha         -21.91289202 eV
  | Total energy, T -> 0          :          -0.80528398 Ha         -21.91289202 eV  <-- do not rely on this value for anything but (periodic) metals
  | Electronic free energy        :          -0.80528398 Ha         -21.91289202 eV

  Derived energy quantities:
  | Kinetic energy                :           0.67071730 Ha          18.25114642 eV
  | Electrostatic energy          :          -1.14830822 Ha         -31.24705663 eV
  | Energy correction for multipole
  | error in Hartree potential    :          -0.00001119 Ha          -0.00030462 eV
  | Sum of eigenvalues per atom                           :          -8.49894502 eV
  | Total energy (T->0) per atom                          :         -10.95644601 eV  <-- do not rely on this value for anything but (periodic) metals
  | Electronic free energy per atom                       :         -10.95644601 eV

  Self-consistency convergence accuracy:
  | Change of charge density      : 0.5189E-03
  | Change of sum of eigenvalues  : 0.7457E-02 eV
  | Change of total energy        : -.6712E-02 eV

  End self-consistency iteration #     5       :  max(cpu_time)    wall_clock(cpu1)
  | Time for this iteration                    :        0.768 s           0.768 s
  | Charge density update                      :        0.136 s           0.136 s
  | Density mixing                             :        0.020 s           0.017 s
  | Hartree multipole update                   :        0.068 s           0.065 s
  | Hartree multipole summation                :        0.260 s           0.260 s
  | Integration                                :        0.276 s           0.276 s
  | Fock matrix evaluation                     :        0.012 s           0.012 s
  | Solution of K.-S. eqns.                    :        0.004 s           0.001 s
  | Total energy evaluation                    :        0.000 s           0.000 s
------------------------------------------------------------

------------------------------------------------------------
          Begin self-consistency iteration #    6

  Date     :  20140812, Time     :  112357.138
------------------------------------------------------------
  Evaluating new KS density.
  Integration grid: deviation in total charge (<rho> - N_e) =   8.881784E-16
  Pulay mixing of updated and previous charge densities.

  Evaluating partitioned Hartree potential by multipole expansion.
  | Analytical far-field extrapolation by fixed multipoles:
  | Hartree multipole sum: apparent total charge =  -0.996305E-07
  Summing up the Hartree potential.
  Time summed over all CPUs for potential: real work        1.024 s, elapsed        1.034 s
  | RMS charge density error from multipole expansion :   0.924419E-04

  Integrating Hamiltonian matrix: batch-based integration.
  Time summed over all CPUs for integration: real work        1.053 s, elapsed        1.069 s
  Evaluating the exchange matrix ... 

  Updating Kohn-Sham eigenvalues, eigenvectors, occupation numbers, and Fermi level.
  Solving generalized eigenproblem
  Updating Kohn-Sham eigenvalues and eigenfunctions.
  Solving real generalised eigenvalue problem by standard LAPACK (fast)
  Determining occupation numbers for Kohn-Sham eigenstates.
  | Chemical potential (Fermi level) in eV                 : -.62650213E+01
  | Error in electron count due to remaining E_F inaccuracy: 0.00000000E+00
  | Maximum occupation number of highest empty state:  0.00E+00

  Highest occupied state (VBM) at     -8.49751422 eV
  | Occupation number:      2.00000000

  Lowest unoccupied state (CBM) at    -4.03252841 eV
  | Occupation number:      0.00000000

  Overall HOMO-LUMO gap:      4.46498581 eV.

  Total energy components:
  | Sum of eigenvalues            :          -0.62455582 Ha         -16.99502844 eV
  | XC energy correction          :           0.32774374 Ha           8.91836091 eV
  | XC potential correction       :           0.00000000 Ha           0.00000000 eV
  | Free-atom electrostatic energy:          -0.56545302 Ha         -15.38675962 eV
  | Hartree energy correction     :           0.05694567 Ha           1.54957048 eV
  | Entropy correction            :           0.00000000 Ha           0.00000000 eV
  | ---------------------------
  | Total energy                  :          -0.80531943 Ha         -21.91385666 eV
  | Total energy, T -> 0          :          -0.80531943 Ha         -21.91385666 eV  <-- do not rely on this value for anything but (periodic) metals
  | Electronic free energy        :          -0.80531943 Ha         -21.91385666 eV

  Derived energy quantities:
  | Kinetic energy                :           0.67116821 Ha          18.26341633 eV
  | Electrostatic energy          :          -1.14874390 Ha         -31.25891208 eV
  | Energy correction for multipole
  | error in Hartree potential    :          -0.00001115 Ha          -0.00030349 eV
  | Sum of eigenvalues per atom                           :          -8.49751422 eV
  | Total energy (T->0) per atom                          :         -10.95692833 eV  <-- do not rely on this value for anything but (periodic) metals
  | Electronic free energy per atom                       :         -10.95692833 eV

  Self-consistency convergence accuracy:
  | Change of charge density      : 0.1171E-03
  | Change of sum of eigenvalues  : 0.2862E-02 eV
  | Change of total energy        : -.9646E-03 eV

  End self-consistency iteration #     6       :  max(cpu_time)    wall_clock(cpu1)
  | Time for this iteration                    :        0.768 s           0.767 s
  | Charge density update                      :        0.144 s           0.142 s
  | Density mixing                             :        0.020 s           0.020 s
  | Hartree multipole update                   :        0.064 s           0.064 s
  | Hartree multipole summation                :        0.260 s           0.260 s
  | Integration                                :        0.268 s           0.267 s
  | Fock matrix evaluation                     :        0.012 s           0.012 s
  | Solution of K.-S. eqns.                    :        0.000 s           0.002 s
  | Total energy evaluation                    :        0.000 s           0.000 s
------------------------------------------------------------

------------------------------------------------------------
          Begin self-consistency iteration #    7

  Date     :  20140812, Time     :  112357.905
------------------------------------------------------------
  Evaluating new KS density.
  Integration grid: deviation in total charge (<rho> - N_e) =  -2.220446E-15
  Pulay mixing of updated and previous charge densities.

  Evaluating partitioned Hartree potential by multipole expansion.
  | Analytical far-field extrapolation by fixed multipoles:
  | Hartree multipole sum: apparent total charge =  -0.996274E-07
  Summing up the Hartree potential.
  Time summed over all CPUs for potential: real work        1.028 s, elapsed        1.039 s
  | RMS charge density error from multipole expansion :   0.924540E-04

  Integrating Hamiltonian matrix: batch-based integration.
  Time summed over all CPUs for integration: real work        1.053 s, elapsed        1.079 s
  Evaluating the exchange matrix ... 

  Updating Kohn-Sham eigenvalues, eigenvectors, occupation numbers, and Fermi level.
  Solving generalized eigenproblem
  Updating Kohn-Sham eigenvalues and eigenfunctions.
  Solving real generalised eigenvalue problem by standard LAPACK (fast)
  Determining occupation numbers for Kohn-Sham eigenstates.
  | Chemical potential (Fermi level) in eV                 : -.62650699E+01
  | Error in electron count due to remaining E_F inaccuracy: 0.00000000E+00
  | Maximum occupation number of highest empty state:  0.00E+00

  Highest occupied state (VBM) at     -8.49757104 eV
  | Occupation number:      2.00000000

  Lowest unoccupied state (CBM) at    -4.03256872 eV
  | Occupation number:      0.00000000

  Overall HOMO-LUMO gap:      4.46500232 eV.

  Total energy components:
  | Sum of eigenvalues            :          -0.62455999 Ha         -16.99514208 eV
  | XC energy correction          :           0.32775114 Ha           8.91856241 eV
  | XC potential correction       :           0.00000000 Ha           0.00000000 eV
  | Free-atom electrostatic energy:          -0.56545302 Ha         -15.38675962 eV
  | Hartree energy correction     :           0.05695237 Ha           1.54975297 eV
  | Entropy correction            :           0.00000000 Ha           0.00000000 eV
  | ---------------------------
  | Total energy                  :          -0.80530950 Ha         -21.91358631 eV
  | Total energy, T -> 0          :          -0.80530950 Ha         -21.91358631 eV  <-- do not rely on this value for anything but (periodic) metals
  | Electronic free energy        :          -0.80530950 Ha         -21.91358631 eV

  Derived energy quantities:
  | Kinetic energy                :           0.67117157 Ha          18.26350765 eV
  | Electrostatic energy          :          -1.14872992 Ha         -31.25853155 eV
  | Energy correction for multipole
  | error in Hartree potential    :          -0.00001116 Ha          -0.00030355 eV
  | Sum of eigenvalues per atom                           :          -8.49757104 eV
  | Total energy (T->0) per atom                          :         -10.95679316 eV  <-- do not rely on this value for anything but (periodic) metals
  | Electronic free energy per atom                       :         -10.95679316 eV

  Self-consistency convergence accuracy:
  | Change of charge density      : 0.3025E-05
  | Change of sum of eigenvalues  : -.1136E-03 eV
  | Change of total energy        : 0.2703E-03 eV

  End self-consistency iteration #     7       :  max(cpu_time)    wall_clock(cpu1)
  | Time for this iteration                    :        0.776 s           0.775 s
  | Charge density update                      :        0.136 s           0.135 s
  | Density mixing                             :        0.024 s           0.024 s
  | Hartree multipole update                   :        0.072 s           0.071 s
  | Hartree multipole summation                :        0.260 s           0.260 s
  | Integration                                :        0.272 s           0.270 s
  | Fock matrix evaluation                     :        0.012 s           0.012 s
  | Solution of K.-S. eqns.                    :        0.004 s           0.001 s
  | Total energy evaluation                    :        0.000 s           0.000 s
------------------------------------------------------------

------------------------------------------------------------
          Begin self-consistency iteration #    8

  Date     :  20140812, Time     :  112358.680
------------------------------------------------------------
  Evaluating new KS density.
  Integration grid: deviation in total charge (<rho> - N_e) =   4.440892E-16
  Pulay mixing of updated and previous charge densities.

  Evaluating partitioned Hartree potential by multipole expansion.
  | Analytical far-field extrapolation by fixed multipoles:
  | Hartree multipole sum: apparent total charge =  -0.996267E-07
  Summing up the Hartree potential.
  Time summed over all CPUs for potential: real work        1.031 s, elapsed        1.041 s
  | RMS charge density error from multipole expansion :   0.924536E-04

  Integrating Hamiltonian matrix: batch-based integration.
  Time summed over all CPUs for integration: real work        1.068 s, elapsed        1.084 s
  Evaluating the exchange matrix ... 

  Updating Kohn-Sham eigenvalues, eigenvectors, occupation numbers, and Fermi level.
  Solving generalized eigenproblem
  Updating Kohn-Sham eigenvalues and eigenfunctions.
  Solving real generalised eigenvalue problem by standard LAPACK (fast)
  Determining occupation numbers for Kohn-Sham eigenstates.
  | Chemical potential (Fermi level) in eV                 : -.62650653E+01
  | Error in electron count due to remaining E_F inaccuracy: 0.00000000E+00
  | Maximum occupation number of highest empty state:  0.00E+00

  Highest occupied state (VBM) at     -8.49756613 eV
  | Occupation number:      2.00000000

  Lowest unoccupied state (CBM) at    -4.03256455 eV
  | Occupation number:      0.00000000

  Overall HOMO-LUMO gap:      4.46500158 eV.

  Total energy components:
  | Sum of eigenvalues            :          -0.62455963 Ha         -16.99513227 eV
  | XC energy correction          :           0.32775066 Ha           8.91854927 eV
  | XC potential correction       :           0.00000000 Ha           0.00000000 eV
  | Free-atom electrostatic energy:          -0.56545302 Ha         -15.38675962 eV
  | Hartree energy correction     :           0.05695202 Ha           1.54974320 eV
  | Entropy correction            :           0.00000000 Ha           0.00000000 eV
  | ---------------------------
  | Total energy                  :          -0.80530998 Ha         -21.91359942 eV
  | Total energy, T -> 0          :          -0.80530998 Ha         -21.91359942 eV  <-- do not rely on this value for anything but (periodic) metals
  | Electronic free energy        :          -0.80530998 Ha         -21.91359942 eV

  Derived energy quantities:
  | Kinetic energy                :           0.67117153 Ha          18.26350656 eV
  | Electrostatic energy          :          -1.14873085 Ha         -31.25855671 eV
  | Energy correction for multipole
  | error in Hartree potential    :          -0.00001116 Ha          -0.00030355 eV
  | Sum of eigenvalues per atom                           :          -8.49756613 eV
  | Total energy (T->0) per atom                          :         -10.95679971 eV  <-- do not rely on this value for anything but (periodic) metals
  | Electronic free energy per atom                       :         -10.95679971 eV

  Self-consistency convergence accuracy:
  | Change of charge density      : 0.3768E-06
  | Change of sum of eigenvalues  : 0.9811E-05 eV
  | Change of total energy        : -.1311E-04 eV

  End self-consistency iteration #     8       :  max(cpu_time)    wall_clock(cpu1)
  | Time for this iteration                    :        0.772 s           0.774 s
  | Charge density update                      :        0.136 s           0.136 s
  | Density mixing                             :        0.028 s           0.028 s
  | Hartree multipole update                   :        0.064 s           0.064 s
  | Hartree multipole summation                :        0.264 s           0.261 s
  | Integration                                :        0.272 s           0.271 s
  | Fock matrix evaluation                     :        0.012 s           0.013 s
  | Solution of K.-S. eqns.                    :        0.004 s           0.001 s
  | Total energy evaluation                    :        0.000 s           0.000 s
------------------------------------------------------------

------------------------------------------------------------
          Begin self-consistency iteration #    9

  Date     :  20140812, Time     :  112359.455
------------------------------------------------------------
  Evaluating new KS density.
  Integration grid: deviation in total charge (<rho> - N_e) =   5.329071E-15
  Pulay mixing of updated and previous charge densities.

  Evaluating partitioned Hartree potential by multipole expansion.
  | Analytical far-field extrapolation by fixed multipoles:
  | Hartree multipole sum: apparent total charge =  -0.996267E-07
  Summing up the Hartree potential.
  Time summed over all CPUs for potential: real work        1.025 s, elapsed        1.030 s
  | RMS charge density error from multipole expansion :   0.924533E-04

  Integrating Hamiltonian matrix: batch-based integration.
  Time summed over all CPUs for integration: real work        1.082 s, elapsed        1.113 s
  Evaluating the exchange matrix ... 

  Updating Kohn-Sham eigenvalues, eigenvectors, occupation numbers, and Fermi level.
  Solving generalized eigenproblem
  Updating Kohn-Sham eigenvalues and eigenfunctions.
  Solving real generalised eigenvalue problem by standard LAPACK (fast)
  Determining occupation numbers for Kohn-Sham eigenstates.
  | Chemical potential (Fermi level) in eV                 : -.62650642E+01
  | Error in electron count due to remaining E_F inaccuracy: 0.00000000E+00
  | Maximum occupation number of highest empty state:  0.00E+00

  Highest occupied state (VBM) at     -8.49756503 eV
  | Occupation number:      2.00000000

  Lowest unoccupied state (CBM) at    -4.03256344 eV
  | Occupation number:      0.00000000

  Overall HOMO-LUMO gap:      4.46500159 eV.

  Total energy components:
  | Sum of eigenvalues            :          -0.62455955 Ha         -16.99513005 eV
  | XC energy correction          :           0.32775072 Ha           8.91855080 eV
  | XC potential correction       :           0.00000000 Ha           0.00000000 eV
  | Free-atom electrostatic energy:          -0.56545302 Ha         -15.38675962 eV
  | Hartree energy correction     :           0.05695185 Ha           1.54973869 eV
  | Entropy correction            :           0.00000000 Ha           0.00000000 eV
  | ---------------------------
  | Total energy                  :          -0.80531001 Ha         -21.91360019 eV
  | Total energy, T -> 0          :          -0.80531001 Ha         -21.91360019 eV  <-- do not rely on this value for anything but (periodic) metals
  | Electronic free energy        :          -0.80531001 Ha         -21.91360019 eV

  Derived energy quantities:
  | Kinetic energy                :           0.67117190 Ha          18.26351664 eV
  | Electrostatic energy          :          -1.14873119 Ha         -31.25856603 eV
  | Energy correction for multipole
  | error in Hartree potential    :          -0.00001116 Ha          -0.00030355 eV
  | Sum of eigenvalues per atom                           :          -8.49756503 eV
  | Total energy (T->0) per atom                          :         -10.95680009 eV  <-- do not rely on this value for anything but (periodic) metals
  | Electronic free energy per atom                       :         -10.95680009 eV

  Self-consistency convergence accuracy:
  | Change of charge density      : 0.1011E-06
  | Change of sum of eigenvalues  : 0.2215E-05 eV
  | Change of total energy        : -.7676E-06 eV

  Writing Kohn-Sham eigenvalues.

  State    Occupation    Eigenvalue [Ha]    Eigenvalue [eV]
      1       2.00000          -0.312280           -8.49757
      2       0.00000          -0.148194           -4.03256
      3       0.00000           0.188634            5.13299
      4       0.00000           0.204408            5.56223
      5       0.00000           0.337623            9.18718
      6       0.00000           0.372814           10.14477
      7       0.00000           0.372814           10.14477
      8       0.00000           0.403091           10.96866
      9       0.00000           0.403091           10.96866
     10       0.00000           0.495062           13.47132
     11       0.00000           0.961871           26.17384
     12       0.00000           0.990275           26.94676
     13       0.00000           1.162382           31.63003
     14       0.00000           1.182466           32.17655
     15       0.00000           1.182466           32.17655
     16       0.00000           1.203109           32.73827
     17       0.00000           1.203109           32.73827
     18       0.00000           1.209008           32.89879
     19       0.00000           1.209008           32.89879
     20       0.00000           1.232615           33.54115
     21       0.00000           1.232615           33.54115
     22       0.00000           1.281437           34.86967
     23       0.00000           1.779141           48.41289
     24       0.00000           1.806581           49.15957
     25       0.00000           1.806581           49.15957
     26       0.00000           1.856802           50.52615
     27       0.00000           1.856802           50.52615
     28       0.00000           2.038779           55.47799
     29       0.00000           3.454346           93.99755
     30       0.00000           3.465687           94.30615
     31       0.00000           3.465687           94.30615
     32       0.00000           3.474859           94.55572
     33       0.00000           3.474859           94.55572
     34       0.00000           3.476605           94.60325
     35       0.00000           3.476605           94.60325
     36       0.00000           3.477063           94.61569
     37       0.00000           3.477063           94.61569
     38       0.00000           3.480647           94.71323
     39       0.00000           3.480647           94.71323
     40       0.00000           3.492136           95.02586
     41       0.00000           3.492136           95.02586
     42       0.00000           3.506893           95.42741
     43       0.00000           3.831168          104.25139
     44       0.00000           3.901405          106.16264
     45       0.00000           5.239434          142.57227
     46       0.00000           5.268874          143.37336
     47       0.00000           5.268874          143.37336
     48       0.00000           5.312048          144.54818
     49       0.00000           5.312048          144.54819
     50       0.00000           5.325725          144.92034
     51       0.00000           5.325725          144.92034
     52       0.00000           5.378543          146.35759
     53       0.00000           5.378543          146.35759
     54       0.00000           5.502993          149.74405
     55       0.00000           8.458548          230.16881
     56       0.00000           8.510606          231.58536
     57       0.00000           8.510606          231.58536
     58       0.00000           8.629557          234.82219
     59       0.00000           8.629557          234.82219
     60       0.00000           9.048794          246.23021
     61       0.00000          21.803755          593.31037
     62       0.00000          22.050165          600.01553

  Highest occupied state (VBM) at     -8.49756503 eV
  | Occupation number:      2.00000000

  Lowest unoccupied state (CBM) at    -4.03256344 eV
  | Occupation number:      0.00000000

  Overall HOMO-LUMO gap:      4.46500159 eV.

  Self-consistency cycle converged.

  End self-consistency iteration #     9       :  max(cpu_time)    wall_clock(cpu1)
  | Time for this iteration                    :        0.788 s           0.789 s
  | Charge density update                      :        0.136 s           0.136 s
  | Density mixing                             :        0.032 s           0.032 s
  | Hartree multipole update                   :        0.068 s           0.067 s
  | Hartree multipole summation                :        0.260 s           0.259 s
  | Integration                                :        0.280 s           0.278 s
  | Fock matrix evaluation                     :        0.016 s           0.014 s
  | Solution of K.-S. eqns.                    :        0.004 s           0.002 s
  | Total energy evaluation                    :        0.000 s           0.000 s
------------------------------------------------------------

  Energy and forces in a compact form:
  | Total energy uncorrected      :         -0.219136001885522E+02 eV
  | Total energy corrected        :         -0.219136001885522E+02 eV  <-- do not rely on this value for anything but (periodic) metals
  | Electronic free energy        :         -0.219136001885522E+02 eV

  ------------------------------------ 
  Start decomposition of the XC Energy 
  ------------------------------------ 
  Hartree-Fock part   :          0.327750718 Ha              8.918550795 eV
  ------------------------------------ 
  X Energy            :          0.327750718 Ha              8.918550795 eV
  C Energy GGA        :          0.000000000 Ha              0.000000000 eV
  Total XC Energy     :          0.327750718 Ha              8.918550795 eV
  LDA X and C from self-consistent density 
  X Energy LDA        :         -0.344017241 Ha             -9.361185407 eV
  C Energy LDA        :         -0.074650245 Ha             -2.031336518 eV
  ------------------------------------ 
  End decomposition of the XC Energy 
  ------------------------------------ 
---------------------------------------------
---------------------------------------------
 | MP2 calculation starts ...
---------------------------------------------

  | Note : Resolution of identity applied 
  | Note : Non spin-polarized system 
---------------------------------------------
  | Homo level                                        1
  | Lumo level                                        2
  | Total Number of states                           62
  | Number of k-points                                1
  | Homo-Lumo Gap                            0.16408579 Ha          4.46500159 eV
---------------------------------------------
  The ovlp_3KS matrix takes another      0 MiB x      4 procs =       0.000 GiB.


---------------------------------------------
| Sum of correlation terms 
---------------------------------------------
  | Pair state     1                    :         -3.52569458 eV         -3.52569458 eV

---------------------------------------------
| Correlation energy spectrum 
---------------------------------------------
  |     2    :         -0.14819398        -0.10789786
  |     3    :          0.18863390        -0.00168513
  |     4    :          0.20440805        -0.00563853
  |     5    :          0.33762284        -0.00123829
  |     6    :          0.37281363        -0.00100661
  |     7    :          0.37281363        -0.00100661
  |     8    :          0.40309087        -0.00078787
  |     9    :          0.40309087        -0.00078787
  |    10    :          0.49506208        -0.00078655
  |    11    :          0.96187111        -0.00120109
  |    12    :          0.99027520        -0.00252272
  |    13    :          1.16238230        -0.00013734
  |    14    :          1.18246645        -0.00011184
  |    15    :          1.18246645        -0.00011184
  |    16    :          1.20310914        -0.00009506
  |    17    :          1.20310914        -0.00009506
  |    18    :          1.20900834        -0.00009197
  |    19    :          1.20900834        -0.00009197
  |    20    :          1.23261472        -0.00009991
  |    21    :          1.23261472        -0.00009991
  |    22    :          1.28143684        -0.00013421
  |    23    :          1.77914094        -0.00045903
  |    24    :          1.80658107        -0.00043252
  |    25    :          1.80658107        -0.00043252
  |    26    :          1.85680185        -0.00041163
  |    27    :          1.85680185        -0.00041163
  |    28    :          2.03877882        -0.00034264
  |    29    :          3.45434647        -0.00002526
  |    30    :          3.46568731        -0.00002094
  |    31    :          3.46568731        -0.00002094
  |    32    :          3.47485876        -0.00001975
  |    33    :          3.47485876        -0.00001975
  |    34    :          3.47660545        -0.00001885
  |    35    :          3.47660545        -0.00001885
  |    36    :          3.47706273        -0.00001881
  |    37    :          3.47706273        -0.00001881
  |    38    :          3.48064736        -0.00001947
  |    39    :          3.48064736        -0.00001947
  |    40    :          3.49213615        -0.00001997
  |    41    :          3.49213615        -0.00001997
  |    42    :          3.50689290        -0.00002319
  |    43    :          3.83116819        -0.00024637
  |    44    :          3.90140515        -0.00028591
  |    45    :          5.23943445        -0.00003700
  |    46    :          5.26887405        -0.00003624
  |    47    :          5.26887405        -0.00003624
  |    48    :          5.31204816        -0.00003550
  |    49    :          5.31204817        -0.00003550
  |    50    :          5.32572472        -0.00003541
  |    51    :          5.32572473        -0.00003541
  |    52    :          5.37854262        -0.00003539
  |    53    :          5.37854262        -0.00003539
  |    54    :          5.50299263        -0.00003535
  |    55    :          8.45854814        -0.00004510
  |    56    :          8.51060569        -0.00004457
  |    57    :          8.51060569        -0.00004457
  |    58    :          8.62955689        -0.00004278
  |    59    :          8.62955689        -0.00004278
  |    60    :          9.04879379        -0.00003791
  |    61    :         21.80375548        -0.00000874
  |    62    :         22.05016540        -0.00000854
---------------------------------------------
 
 
 
          ---------------------------------------------
          | MP2 calculation comes to finish ...  
 
          ---------------------------------------------
          | Total time for calculating MP2 correction              :        0.000 s

          ---------------------------------------------

---------------------------------------------
  | HF Energy                      :         -0.80531001 Ha        -21.91360019 eV
  | MP2 correction                 :         -0.12956689 Ha         -3.52569458 eV
---------------------------------------------
  | Total Energy + MP2 correction  :         -0.93487690 Ha        -25.43929477 eV
---------------------------------------------

------------------------------------------------------------------------------
  Final output of selected total energy values:

  The following output summarizes some interesting total energy values
  at the end of a run (AFTER all relaxation, molecular dynamics, etc.).

  | Total energy of the DFT / Hartree-Fock s.c.f. calculation      :            -21.913600189 eV
  | Final zero-broadening corrected energy (caution - metals only) :            -21.913600189 eV
  | Total energy after the post-s.c.f. correlation calculation     :            -25.439294773 eV
  | For reference only, the value of 1 Hartree used in FHI-aims is :             27.211384500 eV

  Before relying on these values, please be sure to understand exactly which
  total energy value is referred to by a given number. Different objects may
  all carry the same name 'total energy'. Definitions:

  Total energy of the DFT / Hartree-Fock s.c.f. calculation:
  | Note that this energy does not include ANY quantities calculated after the
  | s.c.f. cycle, in particular not ANY RPA, MP2, etc. many-body perturbation terms.

  Final zero-broadening corrected energy:
  | For metallic systems only, a broadening of the occupation numbers at the Fermi
  | level can be extrapolated back to zero broadening by an electron-gas inspired
  | formula. For all systems that are not real metals, this value can be
  | meaningless and should be avoided.

  Total energy of the post-s.c.f. correlation calculation        :
  | The actual meaning of this energy depends on the setting for the 'total_energy_method'
  | keyword (MP2, RPA, rPT2, etc). If not sure, compare to the results listed above.

------------------------------------------------------------------------------

  Methods described in the following list of references were used in this FHI-aims run.
  If you publish the results, please make sure to cite these reference if they apply.
  FHI-aims is an academic code, and for our developers (often, Ph.D. students
  and postdocs), scientific credit in the community is essential.
  Thank you for helping us!

  For any use of FHI-aims, please cite:

    Volker Blum, Ralf Gehrke, Felix Hanke, Paula Havu, Ville Havu,
    Xinguo Ren, Karsten Reuter, and Matthias Scheffler,
    "Ab initio molecular simulations with numeric atom-centered orbitals"
    Computer Physics Communications 180, 2175-2196 (2009).
    http://dx.doi.org/10.1016/j.cpc.2009.06.022

  For Hartree-Fock, hybrid functionals, or many-body perturbation theory used in your run, please cite:

    Xinguo Ren, Patrick Rinke, Volker Blum, Juergen Wieferink, Alex Tkatchenko,
    Andrea Sanfilippo, Karsten Reuter, and Matthias Scheffler,
    "Resolution-of-identity approach to Hartree-Fock, hybrid density functionals,
     RPA, MP2, and GW with numeric atom-centered orbital basis functions"
    New Journal of Physics 14, 053020 (2012).
    http://dx.doi.org/10.1088/1367-2630/14/5/053020

  For the NAO-VCC-nZ basis sets used in this calculation, please cite:

    Igor Ying Zhang, Xinguo Ren, Patrick Rinke, Volker Blum, and Matthias Scheffler,
    "Numeric atom-centered-orbital basis sets with valence-correlation consistency from H to Ar"
    New Journal of Physics 15, 123033 (2013).
    http://dx.doi.org/10.1088/1367-2630/15/12/123033

  For the real-space grid partitioning and parallelization used in this calculation, please cite:

    Ville Havu, Volker Blum, Paula Havu, and Matthias Scheffler,
    "Efficient O(N) integration for all-electron electronic
    structure calculation using numerically tabulated basis functions"
    Journal of Computational Physics 228, 8367-8379 (2009).
    http://dx.doi.org/10.1016/j.jcp.2009.08.008

  Of course, there are many other important community references, e.g., those cited in the
  above references. Our list is limited to references that describe implementations in the FHI-aims
  code. The reason is purely practical (length of this list) - please credit others as well.

------------------------------------------------------------
          Leaving FHI-aims.
          Date     :  20140812, Time     :  112400.280

          Computational steps:
          | Number of self-consistency cycles          :            9

          Detailed time accounting                     :  max(cpu_time)    wall_clock(cpu1)
          | Total time                                 :       31.826 s          31.881 s
          | Preparation time                           :        0.152 s           0.184 s
          | Grid partitioning                          :        0.224 s           0.224 s
          | Preloading free-atom quantities on grid    :        0.068 s           0.068 s
          | Free-atom superposition energy             :        0.036 s           0.035 s
          | Total time for integrations                :        2.984 s           2.978 s
          | Product basis setup: Total time            :        0.000 s           0.000 s
          | Product basis: | 3-center integrations     :       23.241 s          23.265 s
          | Product basis: | 2-center integrations     :        0.256 s           0.254 s
          | Product basis: | 2-center linear algebra   :        0.092 s           0.092 s
          | Product basis: | 3-center x 2-center       :        0.032 s           0.029 s
          | Total time evaluating exchange matrix      :        0.112 s           0.110 s
          | Transforming ovlp_3fn to ovlp_3KS          :        0.012 s           0.011 s
          | Total time for solution of K.-S. equations :        0.032 s           0.019 s
          | Total time for density update              :        1.236 s           1.232 s
          | Total time for mixing                      :        0.156 s           0.148 s
          | Total time for Hartree multipole update    :        0.636 s           0.627 s
          | Total time for Hartree multipole sum       :        2.388 s           2.375 s
          | Total time for total energy evaluation     :        0.004 s           0.001 s

          Have a nice day.
------------------------------------------------------------
