  MPI-parallelism will be employed.
------------------------------------------------------------
          Invoking FHI-aims ...
          Version 072414
          Compiled on 2014/08/06 at 00:00:04 on host theobook58.

          When using FHI-aims, please cite the following reference:

          Volker Blum, Ralf Gehrke, Felix Hanke, Paula Havu,
          Ville Havu, Xinguo Ren, Karsten Reuter, and Matthias Scheffler,
          'Ab Initio Molecular Simulations with Numeric Atom-Centered Orbitals: FHI-aims',
          Computer Physics Communications 180, 2175-2196 (2009)

          For any questions about FHI-aims, please visit the aimsclub website
          with its forums and wiki. Contributions to both the forums and the
          wiki are warmly encouraged - they are for you, and everyone is welcome there.

------------------------------------------------------------

  Date     :  20140812, Time     :  112536.865
  Time zero on CPU 1             :   0.160000000000000E-01  s.
  Internal wall clock time zero  :           177074736.865  s.

  Using        4 parallel tasks.
  Task        0 on host theobook58 reporting.
  Task        1 on host theobook58 reporting.
  Task        2 on host theobook58 reporting.
  Task        3 on host theobook58 reporting.

  Performing system and environment tests:
  | Environment variable OMP_NUM_THREADS correctly set to 1.
  | Stacksize not measured: no C compiler
  | Checking for scalapack...
  | No scalapack compiled in.

  Obtaining array dimensions for all initial allocations:
  
  -----------------------------------------------------------------------
  Parsing control.in (first pass over file, find array dimensions only).
  The contents of control.in will be repeated verbatim below
  unless switched off by setting 'verbatim_writeout .false.' .
  in the first line of control.in .
  -----------------------------------------------------------------------
  
  xc                      hf
  total_energy_method     mp2
  relativistic            none
  occupation_type         integer 0.0001
  mixer                   pulay
  n_max_pulay             10
  charge_mix_param        0.6
  sc_iter_limit           600
  sc_accuracy_rho         1E-6
  sc_accuracy_eev         1E-4
  sc_accuracy_etot        1E-6
  override_illconditioning .true.
  charge                  0
  ################################################################################
  #
  #  FHI-aims code project
  # Igor Ying Zhang and Xinguo Ren, Fritz Haber Institute Berlin, 2012
  #
  #  Suggested "NAO-VCC-4Z" defaults for H atom (to be pasted into control.in file)
  #
  #  Please cite:
  #
  #  Igor Ying Zhang, Xinguo Ren, Patrick Rinke, Volker Blum, and Matthias Scheffler,
  #  "Numeric atom-centered-orbital basis sets with valence-correlation consistency from H to Ar"
  #  New Journal of Physics 15, 123033 (2013).
  #  http://dx.doi.org/10.1088/1367-2630/15/12/123033
  #
  ################################################################################
    species        H
  #     set basis set reference for FHI-aims output
      cite_reference NAO-VCC-2013
  #     global species definitions
      nucleus             1
      mass                1.00794
  #
      l_hartree           6
  #
      cut_pot             4.0  2.0  1.0
      basis_dep_cutoff    0e-4
  #
      radial_base         24 7.0
  radial_multiplier               6
      angular_grids       specified
        division   0.1930   50
        division   0.3175  110
        division   0.4293  194
        division   0.5066  302
        division   0.5626  434
        division   0.5922  590
  #      division   0.6227  974
  #      division   0.6868 1202
        outer_grid  770
  #      outer_grid  434
  ################################################################################
  #
  #  Definition of "minimal" basis
  #
  ################################################################################
  #     valence basis states
      valence      1  s   1.
  #     ion occupancy
      ion_occ      1  s   0.5
  ################################################################################
  
  
   basis_acc              1e-04
  #============================================
  # Optimization in      H for       NAO-VCC-4Z
  #============================================
  # (sp) correlation set
   hydro     1     s      1.15655525
   hydro     1     s      1.68684502
   hydro     1     s      2.46027686
   hydro     2     p      2.92145897
   hydro     2     p      4.14501835
   hydro     2     p      5.88102632
  # polarization set
   hydro     3     d      6.41446874
   hydro     3     d      7.67536483
   hydro     4     f     10.80870049
  # (sp) enhanced minimal set
   hydro     1     s      3.58833335
  
  -----------------------------------------------------------------------
  Completed first pass over input file control.in .
  -----------------------------------------------------------------------
  
  
  -----------------------------------------------------------------------
  Parsing geometry.in (first pass over file, find array dimensions only).
  The contents of geometry.in will be repeated verbatim below
  unless switched off by setting 'verbatim_writeout .false.' .
  in the first line of geometry.in .
  -----------------------------------------------------------------------
  
  atom             0.0             0.0             0.0    H
  atom             0.0             0.0             4.6    H
  
  -----------------------------------------------------------------------
  Completed first pass over input file geometry.in .
  -----------------------------------------------------------------------
  

  Basic array size parameters:
  | Number of species                 :        1
  | Number of atoms                   :        2
  | Max. basis fn. angular momentum   :        3
  | Max. atomic/ionic basis occupied n:        1
  | Max. number of basis fn. types    :        2
  | Max. radial fns per species/type  :       10
  | Max. logarithmic grid size        :     1131
  | Max. radial integration grid size :      149
  | Max. angular integration grid size:      770
  | Max. angular grid division number :        8
  | Radial grid for Hartree potential :     1131
  | Number of spin channels           :        1

------------------------------------------------------------
          Reading file control.in.
------------------------------------------------------------
 
  Hartree-Fock calculation starts ...... 
  Attention: this version of Hartree-Fock employs an auxiliary basis. 
 
  MP2 correlation energy calculation will be started after the DFT/HF calculation.
  Non-relativistic treatment of kinetic energy.
  Occupation type: Integer occupation.
  Using pulay charge density mixing.
  Pulay mixing - number of memorized iterations:   10
  Charge density mixing - mixing parameter:     0.6000
  Maximum number of s.-c. iterations  :   600
  Convergence accuracy of self-consistent charge density: 0.1000E-05
  Convergence accuracy of sum of eigenvalues: 0.1000E-03
  Convergence accuracy of total energy: 0.1000E-05
  override_illconditioning: Explicitly overriding any built-in checks for an ill-conditioned overlap matrix.
  *** WARNING: If you use this flag, you should really know what you are doing.
  *** DO NOT keep this flag set by default in all your control.in files.
  Charge =   0.000000E+00: Neutral system requested explicitly.
 
  Reading configuration options for species H                   .
  | Found nuclear charge :   1.0000
  | Found atomic mass :    1.00794000000000      amu
  | Found l_max for Hartree potential  :   6
  | Found cutoff potl. onset [A], width [A], scale factor :    4.00000    2.00000    1.00000
  | Threshold for basis-dependent cutoff potential is   0.000000E+00
  | Found data for basic radial integration grid :    24 points, outermost radius =    7.000 A
  | Found multiplier for basic radial grid :   6
  | Found angular grid specification: user-specified.
  | Specified grid contains     7 separate shells.
  | Check grid settings after all constraints further below.
  | Found free-atom valence shell :  1 s   1.000
  | No ionic wave fns used. Skipping ion_occ.
  | Found basis singularity cutoff : 0.1000E-03
  | Found hydrogenic basis function :  1 s   1.157
  | Found hydrogenic basis function :  1 s   1.687
  | Found hydrogenic basis function :  1 s   2.460
  | Found hydrogenic basis function :  2 p   2.921
  | Found hydrogenic basis function :  2 p   4.145
  | Found hydrogenic basis function :  2 p   5.881
  | Found hydrogenic basis function :  3 d   6.414
  | Found hydrogenic basis function :  3 d   7.675
  | Found hydrogenic basis function :  4 f  10.809
  | Found hydrogenic basis function :  1 s   3.588
  Species H                   : Missing cutoff potential type.
  Defaulting to exp(1/x)/(1-x)^2 type cutoff potential.
  Species H : No 'logarithmic' tag. Using default grid for free atom:
  | Default logarithmic grid data [bohr] : 0.1000E-03 0.1000E+03 0.1012E+01
  Species H                   : Using default innermost maximum threshold i_radial=  2 for radial functions.
  Species H                   : Default cutoff onset for free atom density etc. is infinite
  since the product basis is used (hybrid functionals, Hartree-Fock, GW etc.).
  Species H                   : Basic radial grid will be enhanced according to radial_multiplier =   6, to contain   149 grid points.
 
  Finished reading input file 'control.in'. Consistency checks are next.
 
  Species H: Using default value for prodbas_acc =   1.000000E-02.
  Species H: Using default value max_l_prodbas =     5.
  Target number of points in a grid batch is not set. Defaulting to  100
  Method for grid partitioning is not set. Defaulting to parallel hash+maxmin partitioning.
  Batch size limit is not set. Defaulting to    200
  By default, will store active basis functions for each batch.
  If in need of memory, prune_basis_once .false. can be used to disable this option.
  communication_type for Hartree potential was not specified.
  Defaulting to calc_hartree .
  Pulay mixer: Number of initial linear mixing iterations not set.
  Defaulting to    0 iterations.
  Work space size for distributed Hartree potential not set.
  Defaulting to   0.200000E+03 MB.
  Algorithm-dependent basis array size parameters:
  | n_max_pulay                         :       10
  Calculation of forces was not defined in control.in. No forces will be calculated.
  Geometry relaxation not requested: no relaxation will be performed.
  No accuracy limit for integral partition fn. given. Defaulting to 0.1000E-14.
  No threshold value for u(r) in integrations given. Defaulting to 0.1000E-05.
  No accuracy for occupation numbers given. Defaulting to 0.1000E-07.
  No threshold value for occupation numbers given. Defaulting to 0.0000E+00.
  No accuracy for fermi level given. Defaulting to 0.1000E-19.
  Maximum # of iterations to find E_F not set. Defaulting to  200.
  Preferred method for the eigenvalue solver ('KS_method') not specified in 'control.in'.
  Calling blacs routine to test compilation state
  The best choice would be 'elpa', but your version of FHI-aims is compiled without scalapack support.
  Defaulting to 'lapack_fast' instead (serial solution, time will not improve with more CPUs).
  Will not use alltoall communication since running on < 1024 CPUs.
  Threshold for basis singularities not set.
  Default threshold for basis singularities: 0.1000E-04
  partition_type (choice of integration weights) for integrals was not specified.
  | Using a version of the partition function of Stratmann and coworkers ('stratmann_smoother').
  | At each grid point, the set of atoms used to build the partition table is smoothly restricted to
  | only those atoms whose free-atom density would be non-zero at that grid point.
  Partitioning for Hartree potential was not defined. Using partition_type for integrals.
  | Adjusted default value of keyword multip_moments_threshold to:       0.10000000E-11
  | This value may affect high angular momentum components of the Hartree potential in periodic systems.
  Spin handling was not defined in control.in. Defaulting to unpolarized case.
  Threshold for auxiliary basis singularities not set.
  Default threshold for auxiliary basis singularities: 0.1000E-04
  No q(lm)/r^(l+1) cutoff set for long-range Hartree potential.
  | Using default value of  0.100000E-09 .
  | Verify using the multipole_threshold keyword.
  Defaulting to new monopole extrapolation.
  Density update method: automatic selection selected.
  Default to 1D ("use_logsbt") integrations for auxiliary 2-center integrals.
  Default onset of logarithmic r-grid for SBT is-38.000000000000
  Default onset of logarithmic k-grid for SBT is-25.000000000000
  Default range of logarithmic r- and k-grid for SBT is 45.000000000000
  Default number of logarithmic r- and k-grid for SBT is  4096
------------------------------------------------------------


------------------------------------------------------------
          Reading geometry description geometry.in.
------------------------------------------------------------
  Input structure read successfully.
  The structure contains        2 atoms,  and a total of          2.000 electrons.

  Input geometry:
  | No unit cell requested.
  | Atomic structure:
  |       Atom                x [A]            y [A]            z [A]
  |    1: Species H              0.000000         0.000000         0.000000
  |    2: Species H              0.000000         0.000000         4.600000
  |

  | The smallest distance between any two atoms is         4.60000000 AA.
  |
  | The first atom of this pair is atom number                      1 .
  | The second atom of this pair is atom number                     2 .

  Number of empty states per atom not set in control.in .
  | Since you are using a method that relies on the unoccupied spectrum
  | (MP2,GW,RPA et al.), will use the full Hamiltonian size (see below)
  | as the max. possible number of states (occupied plus empty).

  Structure-dependent array size parameters: 
  | Maximum number of distinct radial functions  :       11
  | Maximum number of basis functions            :       62
  | Number of Kohn-Sham states (occupied + empty):       62
------------------------------------------------------------

------------------------------------------------------------
          Preparing all fixed parts of the calculation.
------------------------------------------------------------
  Determining machine precision:
    2.225073858507201E-308
  Setting up grids for atomic and cluster calculations.

  Creating wave function, potential, and density for free atoms.

  Species: H

  List of occupied orbitals and eigenvalues:
    n    l              occ      energy [Ha]    energy [eV]
    1    0           1.0000        -0.233457        -6.3527

  Creating fixed part of basis set: Ionic, confined, hydrogenic.
 
  H                    hydrogenic:
 
  List of hydrogenic basis orbitals: 
    n    l      effective z      eigenvalue [eV]  inner max. [A]     outer max. [A]     outer radius [A]   
    1    0         1.156555       -18.1992           0.460320           0.460320           5.243229
    1    0         1.686845       -38.7143           0.315118           0.315118           4.932336
    1    0         2.460277       -82.3547           0.215718           0.215718           3.815562
    2    1         2.921459       -29.0309           0.723605           0.723605           5.243229
    2    1         4.145018       -58.4405           0.507614           0.507614           4.813203
    2    1         5.881026      -117.6432           0.360475           0.360475           3.678162
    3    2         6.414469       -62.2013           0.741515           0.741515           4.993004
    3    2         7.675365       -89.0587           0.617279           0.617279           4.583499
    4    3        10.808700       -99.3454           0.778676           0.778676           4.696947
    1    0         3.588333      -175.1887           0.147673           0.147673           2.644120
 

  Adding cutoff potential to free-atom effective potential.
  Creating atomic-like basis functions for current effective potential.

  Species H                   :

  List of atomic basis orbitals and eigenvalues:
    n    l      energy [Ha]    energy [eV]    outer radius [A]
    1    0        -0.233418        -6.3516       5.373006

  Assembling full basis from fixed parts.
  | Species H :   atomic orbital   1 s accepted.
  | Species H :    hydro orbital   1 s accepted.
  | Species H :    hydro orbital   1 s accepted.
  | Species H :    hydro orbital   1 s accepted.
  | Species H :    hydro orbital   1 s accepted.
  | Species H :    hydro orbital   2 p accepted.
  | Species H :    hydro orbital   2 p accepted.
  | Species H :    hydro orbital   2 p accepted.
  | Species H :    hydro orbital   3 d accepted.
  | Species H :    hydro orbital   3 d accepted.
  | Species H :    hydro orbital   4 f accepted.
 
  Basis size parameters after reduction:
  | Total number of radial functions:       11
  | Total number of basis functions :       62
 
  Testing on-site integration grid accuracy.
  |  Species  Function  <phi|h_atom|phi> (log., in eV)  <phi|h_atom|phi> (rad., in eV)
           1        1                 -6.3519216712                 -6.3519215989
           1        2                  8.4716038567                  8.4716058028
           1        3                 58.3749927434                 58.3750109815
           1        4                178.9024737125                178.9026031671
           1        5                456.3642310330                456.3649721232
           1        6                 16.2415699263                 16.2415699338
           1        7                 68.2932618880                 68.2932619123
           1        8                188.3801588017                188.3801587562
           1        9                 49.9849006789                 49.9849006869
           1       10                114.3821731125                114.3821730675
           1       11                 88.0899419283                 88.0899419237

  Preparing densities etc. for the partition functions (integrals / Hartree potential).

  Preparations completed.
  max(cpu_time)          :      0.148 s.
  Wall clock time (cpu1) :      0.163 s.
------------------------------------------------------------

------------------------------------------------------------
          Begin self-consistency loop: Initialization.

          Date     :  20140812, Time     :  112537.031
------------------------------------------------------------

  Initializing index lists of integration centers etc. from given atomic structure:
  | Number of centers in hartree potential         :         2
  | Number of centers in hartree multipole         :         2
  | Number of centers in electron density summation:         2
  | Number of centers in basis integrals           :         2
  | Number of centers in integrals                 :         2
  Partitioning the integration grid into batches with parallel hashing+maxmin method.
  | Number of batches:     1788
  | Maximal batch size:     150
  | Minimal batch size:      65
  | Average batch size:      80.763
  | Standard deviation of batch sizes:      25.086

  Integration load balanced across     4 MPI tasks.
  Work distribution over tasks is as follows:
  Task     0 has      36145 integration points.
  Task     1 has      36099 integration points.
  Task     2 has      36100 integration points.
  Task     3 has      36060 integration points.
  Initializing partition tables, free-atom densities, potentials, etc. across the integration grid (initialize_grid_storage).
  | Original list of interatomic distances with           2 x          2 entries is created.
  | Net number of integration points:   144404
  | of which are non-zero points    :   142388
  Obtaining max. number of non-zero basis functions in each batch (get_n_compute_maxes).
  | Maximal number of non-zero basis functions:       62 in task     0
  | Maximal number of non-zero basis functions:       62 in task     1
  | Maximal number of non-zero basis functions:       62 in task     2
  | Maximal number of non-zero basis functions:       62 in task     3
  Selecting the method for density update.
  Loop over occupied states selected for charge density update.
  Integrating Hamiltonian matrix: batch-based integration.
  Time summed over all CPUs for integration: real work        1.122 s, elapsed        1.148 s
  Integrating overlap matrix.
  Time summed over all CPUs for integration: real work        0.685 s, elapsed        0.718 s

  Updating Kohn-Sham eigenvalues, eigenvectors, occupation numbers, and Fermi level.
  Solving generalized eigenproblem
  Updating Kohn-Sham eigenvalues and eigenfunctions.
  Transforming overlap matrix and checking for singularities.
  Overlap matrix is nonsingular:
  | Lowest eigenvalue:  0.686555E+00
  Solving real generalised eigenvalue problem by standard LAPACK (fast)
  Determining occupation numbers for Kohn-Sham eigenstates.
  | Chemical potential (Fermi level) in eV                 : -.63534780E+01
  | Error in electron count due to remaining E_F inaccuracy: 0.00000000E+00
  | Maximum occupation number of highest empty state:  0.00E+00

  Writing Kohn-Sham eigenvalues.

  State    Occupation    Eigenvalue [Ha]    Eigenvalue [eV]
      1       2.00000          -0.234947           -6.39323
      2       0.00000          -0.232025           -6.31373
      3       0.00000           0.081373            2.21427
      4       0.00000           0.118205            3.21653
      5       0.00000           0.234553            6.38251
      6       0.00000           0.243285            6.62012
      7       0.00000           0.243285            6.62012
      8       0.00000           0.247294            6.72921
      9       0.00000           0.247294            6.72921
     10       0.00000           0.269278            7.32744
     11       0.00000           0.776615           21.13278
     12       0.00000           0.793176           21.58343
     13       0.00000           1.017690           27.69274
     14       0.00000           1.020710           27.77492
     15       0.00000           1.020710           27.77492
     16       0.00000           1.022551           27.82502
     17       0.00000           1.022551           27.82502
     18       0.00000           1.022856           27.83333
     19       0.00000           1.022856           27.83333
     20       0.00000           1.024652           27.88220
     21       0.00000           1.024652           27.88220
     22       0.00000           1.034891           28.16081
     23       0.00000           1.559405           42.43356
     24       0.00000           1.583519           43.08974
     25       0.00000           1.583519           43.08974
     26       0.00000           1.594023           43.37556
     27       0.00000           1.594023           43.37556
     28       0.00000           1.643931           44.73364
     29       0.00000           3.236143           88.05994
     30       0.00000           3.236753           88.07654
     31       0.00000           3.236753           88.07654
     32       0.00000           3.237167           88.08781
     33       0.00000           3.237167           88.08781
     34       0.00000           3.237240           88.08978
     35       0.00000           3.237240           88.08978
     36       0.00000           3.237248           88.09001
     37       0.00000           3.237248           88.09001
     38       0.00000           3.237315           88.09184
     39       0.00000           3.237315           88.09184
     40       0.00000           3.237732           88.10317
     41       0.00000           3.237732           88.10317
     42       0.00000           3.238791           88.13199
     43       0.00000           3.526134           95.95099
     44       0.00000           3.557326           96.79978
     45       0.00000           5.001917          136.10908
     46       0.00000           5.012217          136.38937
     47       0.00000           5.012217          136.38937
     48       0.00000           5.017231          136.52579
     49       0.00000           5.017231          136.52579
     50       0.00000           5.018105          136.54959
     51       0.00000           5.018105          136.54959
     52       0.00000           5.023179          136.68766
     53       0.00000           5.023179          136.68766
     54       0.00000           5.046083          137.31091
     55       0.00000           8.122239          221.01737
     56       0.00000           8.182157          222.64782
     57       0.00000           8.182157          222.64782
     58       0.00000           8.208991          223.37800
     59       0.00000           8.208991          223.37800
     60       0.00000           8.331915          226.72295
     61       0.00000          21.400036          582.32461
     62       0.00000          21.517880          585.53131

  Highest occupied state (VBM) at     -6.39322842 eV
  | Occupation number:      2.00000000

  Lowest unoccupied state (CBM) at    -6.31372750 eV
  | Occupation number:      0.00000000

  Overall HOMO-LUMO gap:      0.07950093 eV.
  Calculating total energy contributions from superposition of free atom densities.

  Total energy components:
  | Sum of eigenvalues            :          -0.46989365 Ha         -12.78645685 eV
  | XC energy correction          :          -0.46506334 Ha         -12.65501734 eV
  | XC potential correction       :           0.60621170 Ha          16.49585975 eV
  | Free-atom electrostatic energy:          -0.56553072 Ha         -15.38887390 eV
  | Hartree energy correction     :           0.00000000 Ha           0.00000000 eV
  | Entropy correction            :           0.00000000 Ha           0.00000000 eV
  | ---------------------------
  | Total energy                  :          -0.89427601 Ha         -24.33448834 eV
  | Total energy, T -> 0          :          -0.89427601 Ha         -24.33448834 eV  <-- do not rely on this value for anything but (periodic) metals
  | Electronic free energy        :          -0.89427601 Ha         -24.33448834 eV

  Derived energy quantities:
  | Kinetic energy                :           0.84689613 Ha          23.04521628 eV
  | Electrostatic energy          :          -1.27610880 Ha         -34.72468729 eV
  | Energy correction for multipole
  | error in Hartree potential    :           0.00000000 Ha           0.00000000 eV
  | Sum of eigenvalues per atom                           :          -6.39322842 eV
  | Total energy (T->0) per atom                          :         -12.16724417 eV  <-- do not rely on this value for anything but (periodic) metals
  | Electronic free energy per atom                       :         -12.16724417 eV
 
 --------------------------------------------
  Constructing auxiliary basis (full product) ...
 
  Product basis:
  | charge radius: extent of product basis function
  | field radius: extent of its Coulomb potential
  | Species   l  charge radius    field radius  multipol momen
  |    H      5     4.813203 A      4.813203 A  2.676041E-15 a.u.
  |    H      4     4.932336 A      4.932336 A  2.417679E-16 a.u.
  |    H      3     5.054418 A      5.054418 A  ************ a.u.
  |    H      4     5.054418 A      5.054418 A  ************ a.u.
  |    H      3     5.116587 A      5.116587 A  1.642688E-15 a.u.
  |    H      2     5.179521 A      5.179521 A  6.126280E-16 a.u.
  |    H      3     5.179521 A      5.179521 A  ************ a.u.
  |    H      2     5.243229 A      5.243229 A  1.485543E-16 a.u.
  |    H      2     5.243229 A      5.243229 A  1.683301E-16 a.u.
  |    H      2     5.243229 A      5.243229 A  ************ a.u.
  |    H      3     5.243229 A      5.243229 A  ************ a.u.
  |    H      1     5.307721 A      5.307721 A  2.416866E-16 a.u.
  |    H      1     5.307721 A      5.307721 A  1.291012E-16 a.u.
  |    H      2     5.307721 A      5.307721 A  7.871382E-16 a.u.
  |    H      0     5.373006 A      5.373006 A  9.519909E-17 a.u.
  |    H      1     5.373006 A      5.373006 A  2.334090E-16 a.u.
  |    H      1     5.373006 A      5.373006 A  ************ a.u.
  |    H      1     5.373006 A      5.373006 A  ************ a.u.
  |    H      1     5.373006 A      5.373006 A  1.823473E-16 a.u.
  |    H      0     5.373006 A      5.439094 A  ************ a.u.
  |    H      0     5.439094 A      5.439094 A  ************ a.u.
  |    H      0     5.439094 A      5.505995 A  9.305319E-17 a.u.
  |    H      0     5.439094 A      5.505995 A  4.082184E-17 a.u.
  |    H      0     5.439094 A      5.505995 A  3.169850E-16 a.u.
  |    H      0     5.439094 A      5.505995 A  2.711689E-16 a.u.
  |    H      5     4.872405 A  1.325110E+02 A           19.619780 a.u.
  |    H      4     5.054418 A  3.771796E+02 A           14.639479 a.u.
  |    H      3     5.243229 A  1.836978E+03 A           11.555842 a.u.
  |    H      2     5.307721 A  2.095310E+04 A            4.940052 a.u.
  |    H      1     5.373006 A  2.512347E+06 A            1.793689 a.u.
  |    H      0     5.439094 A  4.604132E+12 A            0.692368 a.u.

  | Shrink_full_auxil_basis : there are       31  radial auxiliary wave functions
                            accepted and      90 rejected.
  | Shrink_full_auxil_basis : there are totally     286 partial auxiliary wave functions.
 
  | Number of product basis functions per thread :    72
  | Minimal requirement for computer memories :           0.005 Gbs
 
  Basis pair condensation :      1953  -->       1953
 
 ----------------------------------------------------
  Integrating the 3-basis-function Coulomb matrix ...
  | i_atom:            1
  | i_atom:            2
  Integrating the Coulomb interaction matrix for auxiliary basis functions (by atoms)

  SBT integration errors (all should be 'small'):
  large logFT aliasing -> increase N/lnrange
  large SBT aliasing -> decrease lnk0 & increase lnk0+lnrange
  large SBT ringing -> decrease lnr0 & increase lnr0+lnrange
  |            El't  L: logFT-al.   small-k   large-k   small-r   large-r
  Atomic logSBT for 2-center Coulomb matrix    :  max(cpu_time)    wall_clock(cpu1)
  | Multiplication with kernel                 :        0.028 s           0.009 s
  | Main matrix multiplication                 :        0.060 s           0.045 s
  | Analytic angular integration               :        0.008 s           0.000 s
  | Kernel construction                        :        0.004 s           0.002 s
  | Overall 2-center overlap time              :        0.100 s           0.062 s

  Difference of Coulomb matrix to its transposed:  1.3878E-16
  Task     0: Eigenvalues of the Coulomb matrix range from    1.8695E+00 to    1.3031E-01.
  Task     0: Using      286   eigenvalues out of rank      286   Coulomb matrix (auxiliary basis).
 
  Multiplying V^-0.5 x ovlp_3fn (1d-scalapack)

  Initialize hartree_potential_storage
  Max. number of atoms included in rho_multipole:            2

  End scf initialization - timings             :  max(cpu_time)    wall_clock(cpu1)
  | Time for scf. initialization               :       24.278 s          24.303 s
  | Boundary condition initialization          :        0.000 s           0.001 s
  | Integration                                :        0.468 s           0.467 s
  | Solution of K.-S. eqns.                    :        0.004 s           0.005 s
  | Grid partitioning                          :        0.244 s           0.243 s
  | Preloading free-atom quantities on grid    :        0.068 s           0.066 s
  | Free-atom superposition energy             :        0.036 s           0.036 s
  | Total energy evaluation                    :        0.004 s           0.000 s
  | Product basis setup: Total time            :       23.381 s          23.407 s
  | Product basis: | 3-center integrations     :       22.909 s          22.933 s
  | Product basis: | 2-center integrations     :        0.256 s           0.254 s
  | Product basis: | 2-center linear algebra   :        0.088 s           0.088 s
  | Product basis: | 3-center x 2-center       :        0.028 s           0.028 s
------------------------------------------------------------

------------------------------------------------------------
          Begin self-consistency iteration #    1

  Date     :  20140812, Time     :  112601.335
------------------------------------------------------------
  Evaluating new KS density.
  Integration grid: deviation in total charge (<rho> - N_e) =  -1.998401E-15
  Pulay mixing of updated and previous charge densities.

  Evaluating partitioned Hartree potential by multipole expansion.
  | Analytical far-field extrapolation by fixed multipoles:
  | Hartree multipole sum: apparent total charge =  -0.913460E-07
  Summing up the Hartree potential.
  Time summed over all CPUs for potential: real work        1.034 s, elapsed        1.042 s
  | RMS charge density error from multipole expansion :   0.812833E-05

  Integrating Hamiltonian matrix: batch-based integration.
  Time summed over all CPUs for integration: real work        1.002 s, elapsed        1.011 s
  Evaluating the exchange matrix ... 

  Updating Kohn-Sham eigenvalues, eigenvectors, occupation numbers, and Fermi level.
  Solving generalized eigenproblem
  Updating Kohn-Sham eigenvalues and eigenfunctions.
  Solving real generalised eigenvalue problem by standard LAPACK (fast)
  Determining occupation numbers for Kohn-Sham eigenstates.
  | Chemical potential (Fermi level) in eV                 : -.58911297E+01
  | Error in electron count due to remaining E_F inaccuracy: 0.00000000E+00
  | Maximum occupation number of highest empty state:  0.00E+00

  Writing Kohn-Sham eigenvalues.

  State    Occupation    Eigenvalue [Ha]    Eigenvalue [eV]
      1       2.00000          -0.276272           -7.51775
      2       0.00000          -0.156718           -4.26451
      3       0.00000           0.174553            4.74983
      4       0.00000           0.212606            5.78530
      5       0.00000           0.383199           10.42737
      6       0.00000           0.395313           10.75700
      7       0.00000           0.395313           10.75700
      8       0.00000           0.401863           10.93525
      9       0.00000           0.401863           10.93525
     10       0.00000           0.427593           11.63540
     11       0.00000           0.982800           26.74336
     12       0.00000           0.998314           27.16550
     13       0.00000           1.214091           33.03710
     14       0.00000           1.217423           33.12776
     15       0.00000           1.217423           33.12776
     16       0.00000           1.219427           33.18231
     17       0.00000           1.219427           33.18231
     18       0.00000           1.219826           33.19317
     19       0.00000           1.219826           33.19317
     20       0.00000           1.221982           33.25183
     21       0.00000           1.221982           33.25183
     22       0.00000           1.233204           33.55718
     23       0.00000           1.825985           49.68758
     24       0.00000           1.850714           50.36048
     25       0.00000           1.850714           50.36048
     26       0.00000           1.861620           50.65726
     27       0.00000           1.861620           50.65726
     28       0.00000           1.913364           52.06528
     29       0.00000           3.499490           95.22598
     30       0.00000           3.500104           95.24266
     31       0.00000           3.500104           95.24266
     32       0.00000           3.500478           95.25286
     33       0.00000           3.500478           95.25286
     34       0.00000           3.500485           95.25305
     35       0.00000           3.500485           95.25305
     36       0.00000           3.500489           95.25314
     37       0.00000           3.500489           95.25314
     38       0.00000           3.500650           95.25753
     39       0.00000           3.500650           95.25753
     40       0.00000           3.501150           95.27115
     41       0.00000           3.501150           95.27115
     42       0.00000           3.502317           95.30291
     43       0.00000           3.882656          105.65244
     44       0.00000           3.913915          106.50305
     45       0.00000           5.341583          145.35188
     46       0.00000           5.352080          145.63752
     47       0.00000           5.352080          145.63752
     48       0.00000           5.357132          145.77497
     49       0.00000           5.357132          145.77497
     50       0.00000           5.358033          145.79949
     51       0.00000           5.358033          145.79949
     52       0.00000           5.363323          145.94344
     53       0.00000           5.363323          145.94344
     54       0.00000           5.386795          146.58215
     55       0.00000           8.542685          232.45828
     56       0.00000           8.603056          234.10106
     57       0.00000           8.603056          234.10106
     58       0.00000           8.630224          234.84034
     59       0.00000           8.630224          234.84034
     60       0.00000           8.754565          238.22383
     61       0.00000          21.910038          596.20248
     62       0.00000          22.027762          599.40591

  Highest occupied state (VBM) at     -7.51775014 eV
  | Occupation number:      2.00000000

  Lowest unoccupied state (CBM) at    -4.26450922 eV
  | Occupation number:      0.00000000

  Overall HOMO-LUMO gap:      3.25324092 eV.

  Total energy components:
  | Sum of eigenvalues            :          -0.55254448 Ha         -15.03550028 eV
  | XC energy correction          :           0.33732037 Ha           9.17895426 eV
  | XC potential correction       :           0.00000000 Ha           0.00000000 eV
  | Free-atom electrostatic energy:          -0.56553072 Ha         -15.38887390 eV
  | Hartree energy correction     :           0.00357550 Ha           0.09729440 eV
  | Entropy correction            :           0.00000000 Ha           0.00000000 eV
  | ---------------------------
  | Total energy                  :          -0.77717933 Ha         -21.14812553 eV
  | Total energy, T -> 0          :          -0.77717933 Ha         -21.14812553 eV  <-- do not rely on this value for anything but (periodic) metals
  | Electronic free energy        :          -0.77717933 Ha         -21.14812553 eV

  Derived energy quantities:
  | Kinetic energy                :           0.83034412 Ha          22.59481309 eV
  | Electrostatic energy          :          -1.27020308 Ha         -34.56398437 eV
  | Energy correction for multipole
  | error in Hartree potential    :          -0.00000011 Ha          -0.00000308 eV
  | Sum of eigenvalues per atom                           :          -7.51775014 eV
  | Total energy (T->0) per atom                          :         -10.57406277 eV  <-- do not rely on this value for anything but (periodic) metals
  | Electronic free energy per atom                       :         -10.57406277 eV

  Self-consistency convergence accuracy:
  | Change of charge density      : 0.3822E-02
  | Change of sum of eigenvalues  : -.2249E+01 eV
  | Change of total energy        : 0.3186E+01 eV

  End self-consistency iteration #     1       :  max(cpu_time)    wall_clock(cpu1)
  | Time for this iteration                    :        0.732 s           0.730 s
  | Charge density update                      :        0.136 s           0.133 s
  | Density mixing                             :        0.004 s           0.002 s
  | Hartree multipole update                   :        0.064 s           0.065 s
  | Hartree multipole summation                :        0.264 s           0.261 s
  | Integration                                :        0.256 s           0.252 s
  | Fock matrix evaluation                     :        0.012 s           0.012 s
  | Solution of K.-S. eqns.                    :        0.004 s           0.002 s
  | Total energy evaluation                    :        0.000 s           0.001 s
------------------------------------------------------------

------------------------------------------------------------
          Begin self-consistency iteration #    2

  Date     :  20140812, Time     :  112602.065
------------------------------------------------------------
  Evaluating new KS density.
  Integration grid: deviation in total charge (<rho> - N_e) =  -4.440892E-15
  Pulay mixing of updated and previous charge densities.

  Evaluating partitioned Hartree potential by multipole expansion.
  | Analytical far-field extrapolation by fixed multipoles:
  | Hartree multipole sum: apparent total charge =  -0.109163E-06
  Summing up the Hartree potential.
  Time summed over all CPUs for potential: real work        1.026 s, elapsed        1.040 s
  | RMS charge density error from multipole expansion :   0.653412E-05

  Integrating Hamiltonian matrix: batch-based integration.
  Time summed over all CPUs for integration: real work        1.013 s, elapsed        1.027 s
  Evaluating the exchange matrix ... 

  Updating Kohn-Sham eigenvalues, eigenvectors, occupation numbers, and Fermi level.
  Solving generalized eigenproblem
  Updating Kohn-Sham eigenvalues and eigenfunctions.
  Solving real generalised eigenvalue problem by standard LAPACK (fast)
  Determining occupation numbers for Kohn-Sham eigenstates.
  | Chemical potential (Fermi level) in eV                 : -.58675612E+01
  | Error in electron count due to remaining E_F inaccuracy: 0.00000000E+00
  | Maximum occupation number of highest empty state:  0.00E+00

  Highest occupied state (VBM) at     -7.49322891 eV
  | Occupation number:      2.00000000

  Lowest unoccupied state (CBM) at    -4.24189353 eV
  | Occupation number:      0.00000000

  Overall HOMO-LUMO gap:      3.25133538 eV.

  Total energy components:
  | Sum of eigenvalues            :          -0.55074220 Ha         -14.98645782 eV
  | XC energy correction          :           0.32587419 Ha           8.86748793 eV
  | XC potential correction       :           0.00000000 Ha           0.00000000 eV
  | Free-atom electrostatic energy:          -0.56553072 Ha         -15.38887390 eV
  | Hartree energy correction     :           0.00007309 Ha           0.00198881 eV
  | Entropy correction            :           0.00000000 Ha           0.00000000 eV
  | ---------------------------
  | Total energy                  :          -0.79032564 Ha         -21.50585498 eV
  | Total energy, T -> 0          :          -0.79032564 Ha         -21.50585498 eV  <-- do not rely on this value for anything but (periodic) metals
  | Electronic free energy        :          -0.79032564 Ha         -21.50585498 eV

  Derived energy quantities:
  | Kinetic energy                :           0.81244681 Ha          22.10780251 eV
  | Electrostatic energy          :          -1.27689826 Ha         -34.74616956 eV
  | Energy correction for multipole
  | error in Hartree potential    :          -0.00000008 Ha          -0.00000217 eV
  | Sum of eigenvalues per atom                           :          -7.49322891 eV
  | Total energy (T->0) per atom                          :         -10.75292749 eV  <-- do not rely on this value for anything but (periodic) metals
  | Electronic free energy per atom                       :         -10.75292749 eV

  Self-consistency convergence accuracy:
  | Change of charge density      : 0.3081E-01
  | Change of sum of eigenvalues  : 0.4904E-01 eV
  | Change of total energy        : -.3577E+00 eV

  End self-consistency iteration #     2       :  max(cpu_time)    wall_clock(cpu1)
  | Time for this iteration                    :        0.736 s           0.736 s
  | Charge density update                      :        0.136 s           0.132 s
  | Density mixing                             :        0.004 s           0.005 s
  | Hartree multipole update                   :        0.068 s           0.067 s
  | Hartree multipole summation                :        0.264 s           0.261 s
  | Integration                                :        0.260 s           0.257 s
  | Fock matrix evaluation                     :        0.012 s           0.012 s
  | Solution of K.-S. eqns.                    :        0.004 s           0.002 s
  | Total energy evaluation                    :        0.000 s           0.000 s
------------------------------------------------------------

------------------------------------------------------------
          Begin self-consistency iteration #    3

  Date     :  20140812, Time     :  112602.802
------------------------------------------------------------
  Evaluating new KS density.
  Integration grid: deviation in total charge (<rho> - N_e) =  -3.108624E-15
  Pulay mixing of updated and previous charge densities.

  Evaluating partitioned Hartree potential by multipole expansion.
  | Analytical far-field extrapolation by fixed multipoles:
  | Hartree multipole sum: apparent total charge =  -0.902707E-07
  Summing up the Hartree potential.
  Time summed over all CPUs for potential: real work        1.049 s, elapsed        1.057 s
  | RMS charge density error from multipole expansion :   0.416921E-04

  Integrating Hamiltonian matrix: batch-based integration.
  Time summed over all CPUs for integration: real work        1.002 s, elapsed        1.019 s
  Evaluating the exchange matrix ... 

  Updating Kohn-Sham eigenvalues, eigenvectors, occupation numbers, and Fermi level.
  Solving generalized eigenproblem
  Updating Kohn-Sham eigenvalues and eigenfunctions.
  Solving real generalised eigenvalue problem by standard LAPACK (fast)
  Determining occupation numbers for Kohn-Sham eigenstates.
  | Chemical potential (Fermi level) in eV                 : -.62674187E+01
  | Error in electron count due to remaining E_F inaccuracy: 0.00000000E+00
  | Maximum occupation number of highest empty state:  0.00E+00

  Highest occupied state (VBM) at     -7.91086072 eV
  | Occupation number:      2.00000000

  Lowest unoccupied state (CBM) at    -4.62397660 eV
  | Occupation number:      0.00000000

  Overall HOMO-LUMO gap:      3.28688412 eV.

  Total energy components:
  | Sum of eigenvalues            :          -0.58143758 Ha         -15.82172144 eV
  | XC energy correction          :           0.31432893 Ha           8.55332548 eV
  | XC potential correction       :           0.00000000 Ha           0.00000000 eV
  | Free-atom electrostatic energy:          -0.56553072 Ha         -15.38887390 eV
  | Hartree energy correction     :           0.05640051 Ha           1.53473589 eV
  | Entropy correction            :           0.00000000 Ha           0.00000000 eV
  | ---------------------------
  | Total energy                  :          -0.77623886 Ha         -21.12253397 eV
  | Total energy, T -> 0          :          -0.77623886 Ha         -21.12253397 eV  <-- do not rely on this value for anything but (periodic) metals
  | Electronic free energy        :          -0.77623886 Ha         -21.12253397 eV

  Derived energy quantities:
  | Kinetic energy                :           0.69995991 Ha          19.04687813 eV
  | Electrostatic energy          :          -1.16186983 Ha         -31.61608662 eV
  | Energy correction for multipole
  | error in Hartree potential    :          -0.00000068 Ha          -0.00001850 eV
  | Sum of eigenvalues per atom                           :          -7.91086072 eV
  | Total energy (T->0) per atom                          :         -10.56126699 eV  <-- do not rely on this value for anything but (periodic) metals
  | Electronic free energy per atom                       :         -10.56126699 eV

  Self-consistency convergence accuracy:
  | Change of charge density      : 0.3281E-01
  | Change of sum of eigenvalues  : -.8353E+00 eV
  | Change of total energy        : 0.3833E+00 eV

  End self-consistency iteration #     3       :  max(cpu_time)    wall_clock(cpu1)
  | Time for this iteration                    :        0.744 s           0.741 s
  | Charge density update                      :        0.136 s           0.133 s
  | Density mixing                             :        0.008 s           0.008 s
  | Hartree multipole update                   :        0.068 s           0.066 s
  | Hartree multipole summation                :        0.268 s           0.265 s
  | Integration                                :        0.256 s           0.255 s
  | Fock matrix evaluation                     :        0.012 s           0.012 s
  | Solution of K.-S. eqns.                    :        0.004 s           0.001 s
  | Total energy evaluation                    :        0.000 s           0.000 s
------------------------------------------------------------

------------------------------------------------------------
          Begin self-consistency iteration #    4

  Date     :  20140812, Time     :  112603.544
------------------------------------------------------------
  Evaluating new KS density.
  Integration grid: deviation in total charge (<rho> - N_e) =  -8.881784E-16
  Pulay mixing of updated and previous charge densities.

  Evaluating partitioned Hartree potential by multipole expansion.
  | Analytical far-field extrapolation by fixed multipoles:
  | Hartree multipole sum: apparent total charge =  -0.871385E-07
  Summing up the Hartree potential.
  Time summed over all CPUs for potential: real work        1.037 s, elapsed        1.051 s
  | RMS charge density error from multipole expansion :   0.446381E-04

  Integrating Hamiltonian matrix: batch-based integration.
  Time summed over all CPUs for integration: real work        1.012 s, elapsed        1.037 s
  Evaluating the exchange matrix ... 

  Updating Kohn-Sham eigenvalues, eigenvectors, occupation numbers, and Fermi level.
  Solving generalized eigenproblem
  Updating Kohn-Sham eigenvalues and eigenfunctions.
  Solving real generalised eigenvalue problem by standard LAPACK (fast)
  Determining occupation numbers for Kohn-Sham eigenstates.
  | Chemical potential (Fermi level) in eV                 : -.62833289E+01
  | Error in electron count due to remaining E_F inaccuracy: 0.00000000E+00
  | Maximum occupation number of highest empty state:  0.00E+00

  Highest occupied state (VBM) at     -7.92718605 eV
  | Occupation number:      2.00000000

  Lowest unoccupied state (CBM) at    -4.63947167 eV
  | Occupation number:      0.00000000

  Overall HOMO-LUMO gap:      3.28771438 eV.

  Total energy components:
  | Sum of eigenvalues            :          -0.58263747 Ha         -15.85437210 eV
  | XC energy correction          :           0.31133757 Ha           8.47192643 eV
  | XC potential correction       :           0.00000000 Ha           0.00000000 eV
  | Free-atom electrostatic energy:          -0.56553072 Ha         -15.38887390 eV
  | Hartree energy correction     :           0.05916054 Ha           1.60984011 eV
  | Entropy correction            :           0.00000000 Ha           0.00000000 eV
  | ---------------------------
  | Total energy                  :          -0.77767008 Ha         -21.16147947 eV
  | Total energy, T -> 0          :          -0.77767008 Ha         -21.16147947 eV  <-- do not rely on this value for anything but (periodic) metals
  | Electronic free energy        :          -0.77767008 Ha         -21.16147947 eV

  Derived energy quantities:
  | Kinetic energy                :           0.69201338 Ha          18.83064207 eV
  | Electrostatic energy          :          -1.15834588 Ha         -31.52019512 eV
  | Energy correction for multipole
  | error in Hartree potential    :          -0.00000079 Ha          -0.00002159 eV
  | Sum of eigenvalues per atom                           :          -7.92718605 eV
  | Total energy (T->0) per atom                          :         -10.58073974 eV  <-- do not rely on this value for anything but (periodic) metals
  | Electronic free energy per atom                       :         -10.58073974 eV

  Self-consistency convergence accuracy:
  | Change of charge density      : 0.6624E-03
  | Change of sum of eigenvalues  : -.3265E-01 eV
  | Change of total energy        : -.3895E-01 eV

  End self-consistency iteration #     4       :  max(cpu_time)    wall_clock(cpu1)
  | Time for this iteration                    :        0.748 s           0.747 s
  | Charge density update                      :        0.132 s           0.130 s
  | Density mixing                             :        0.016 s           0.013 s
  | Hartree multipole update                   :        0.068 s           0.067 s
  | Hartree multipole summation                :        0.264 s           0.264 s
  | Integration                                :        0.260 s           0.260 s
  | Fock matrix evaluation                     :        0.012 s           0.012 s
  | Solution of K.-S. eqns.                    :        0.004 s           0.001 s
  | Total energy evaluation                    :        0.004 s           0.000 s
------------------------------------------------------------

------------------------------------------------------------
          Begin self-consistency iteration #    5

  Date     :  20140812, Time     :  112604.292
------------------------------------------------------------
  Evaluating new KS density.
  Integration grid: deviation in total charge (<rho> - N_e) =  -1.332268E-15
  Pulay mixing of updated and previous charge densities.

  Evaluating partitioned Hartree potential by multipole expansion.
  | Analytical far-field extrapolation by fixed multipoles:
  | Hartree multipole sum: apparent total charge =  -0.860732E-07
  Summing up the Hartree potential.
  Time summed over all CPUs for potential: real work        1.035 s, elapsed        1.044 s
  | RMS charge density error from multipole expansion :   0.435055E-04

  Integrating Hamiltonian matrix: batch-based integration.
  Time summed over all CPUs for integration: real work        1.009 s, elapsed        1.011 s
  Evaluating the exchange matrix ... 

  Updating Kohn-Sham eigenvalues, eigenvectors, occupation numbers, and Fermi level.
  Solving generalized eigenproblem
  Updating Kohn-Sham eigenvalues and eigenfunctions.
  Solving real generalised eigenvalue problem by standard LAPACK (fast)
  Determining occupation numbers for Kohn-Sham eigenstates.
  | Chemical potential (Fermi level) in eV                 : -.62697525E+01
  | Error in electron count due to remaining E_F inaccuracy: 0.00000000E+00
  | Maximum occupation number of highest empty state:  0.00E+00

  Highest occupied state (VBM) at     -7.91302711 eV
  | Occupation number:      2.00000000

  Lowest unoccupied state (CBM) at    -4.62647794 eV
  | Occupation number:      0.00000000

  Overall HOMO-LUMO gap:      3.28654918 eV.

  Total energy components:
  | Sum of eigenvalues            :          -0.58159680 Ha         -15.82605423 eV
  | XC energy correction          :           0.31153020 Ha           8.47716798 eV
  | XC potential correction       :           0.00000000 Ha           0.00000000 eV
  | Free-atom electrostatic energy:          -0.56553072 Ha         -15.38887390 eV
  | Hartree energy correction     :           0.05737312 Ha           1.56120210 eV
  | Entropy correction            :           0.00000000 Ha           0.00000000 eV
  | ---------------------------
  | Total energy                  :          -0.77822420 Ha         -21.17655806 eV
  | Total energy, T -> 0          :          -0.77822420 Ha         -21.17655806 eV  <-- do not rely on this value for anything but (periodic) metals
  | Electronic free energy        :          -0.77822420 Ha         -21.17655806 eV

  Derived energy quantities:
  | Kinetic energy                :           0.69582435 Ha          18.93434387 eV
  | Electrostatic energy          :          -1.16251836 Ha         -31.63373396 eV
  | Energy correction for multipole
  | error in Hartree potential    :          -0.00000078 Ha          -0.00002130 eV
  | Sum of eigenvalues per atom                           :          -7.91302711 eV
  | Total energy (T->0) per atom                          :         -10.58827903 eV  <-- do not rely on this value for anything but (periodic) metals
  | Electronic free energy per atom                       :         -10.58827903 eV

  Self-consistency convergence accuracy:
  | Change of charge density      : 0.1204E-02
  | Change of sum of eigenvalues  : 0.2832E-01 eV
  | Change of total energy        : -.1508E-01 eV

  End self-consistency iteration #     5       :  max(cpu_time)    wall_clock(cpu1)
  | Time for this iteration                    :        0.744 s           0.742 s
  | Charge density update                      :        0.132 s           0.131 s
  | Density mixing                             :        0.016 s           0.017 s
  | Hartree multipole update                   :        0.064 s           0.064 s
  | Hartree multipole summation                :        0.264 s           0.263 s
  | Integration                                :        0.256 s           0.253 s
  | Fock matrix evaluation                     :        0.012 s           0.012 s
  | Solution of K.-S. eqns.                    :        0.004 s           0.001 s
  | Total energy evaluation                    :        0.000 s           0.001 s
------------------------------------------------------------

------------------------------------------------------------
          Begin self-consistency iteration #    6

  Date     :  20140812, Time     :  112605.034
------------------------------------------------------------
  Evaluating new KS density.
  Integration grid: deviation in total charge (<rho> - N_e) =   8.881784E-15
  Pulay mixing of updated and previous charge densities.

  Evaluating partitioned Hartree potential by multipole expansion.
  | Analytical far-field extrapolation by fixed multipoles:
  | Hartree multipole sum: apparent total charge =  -0.861202E-07
  Summing up the Hartree potential.
  Time summed over all CPUs for potential: real work        1.043 s, elapsed        1.060 s
  | RMS charge density error from multipole expansion :   0.434565E-04

  Integrating Hamiltonian matrix: batch-based integration.
  Time summed over all CPUs for integration: real work        1.011 s, elapsed        1.018 s
  Evaluating the exchange matrix ... 

  Updating Kohn-Sham eigenvalues, eigenvectors, occupation numbers, and Fermi level.
  Solving generalized eigenproblem
  Updating Kohn-Sham eigenvalues and eigenfunctions.
  Solving real generalised eigenvalue problem by standard LAPACK (fast)
  Determining occupation numbers for Kohn-Sham eigenstates.
  | Chemical potential (Fermi level) in eV                 : -.62693314E+01
  | Error in electron count due to remaining E_F inaccuracy: 0.00000000E+00
  | Maximum occupation number of highest empty state:  0.00E+00

  Highest occupied state (VBM) at     -7.91262123 eV
  | Occupation number:      2.00000000

  Lowest unoccupied state (CBM) at    -4.62604163 eV
  | Occupation number:      0.00000000

  Overall HOMO-LUMO gap:      3.28657960 eV.

  Total energy components:
  | Sum of eigenvalues            :          -0.58156697 Ha         -15.82524246 eV
  | XC energy correction          :           0.31162430 Ha           8.47972852 eV
  | XC potential correction       :           0.00000000 Ha           0.00000000 eV
  | Free-atom electrostatic energy:          -0.56553072 Ha         -15.38887390 eV
  | Hartree energy correction     :           0.05730042 Ha           1.55922366 eV
  | Entropy correction            :           0.00000000 Ha           0.00000000 eV
  | ---------------------------
  | Total energy                  :          -0.77817298 Ha         -21.17516418 eV
  | Total energy, T -> 0          :          -0.77817298 Ha         -21.17516418 eV  <-- do not rely on this value for anything but (periodic) metals
  | Electronic free energy        :          -0.77817298 Ha         -21.17516418 eV

  Derived energy quantities:
  | Kinetic energy                :           0.69610698 Ha          18.94203470 eV
  | Electrostatic energy          :          -1.16265567 Ha         -31.63747036 eV
  | Energy correction for multipole
  | error in Hartree potential    :          -0.00000078 Ha          -0.00002127 eV
  | Sum of eigenvalues per atom                           :          -7.91262123 eV
  | Total energy (T->0) per atom                          :         -10.58758209 eV  <-- do not rely on this value for anything but (periodic) metals
  | Electronic free energy per atom                       :         -10.58758209 eV

  Self-consistency convergence accuracy:
  | Change of charge density      : 0.2765E-04
  | Change of sum of eigenvalues  : 0.8118E-03 eV
  | Change of total energy        : 0.1394E-02 eV

  End self-consistency iteration #     6       :  max(cpu_time)    wall_clock(cpu1)
  | Time for this iteration                    :        0.748 s           0.748 s
  | Charge density update                      :        0.128 s           0.127 s
  | Density mixing                             :        0.020 s           0.020 s
  | Hartree multipole update                   :        0.068 s           0.066 s
  | Hartree multipole summation                :        0.268 s           0.266 s
  | Integration                                :        0.256 s           0.255 s
  | Fock matrix evaluation                     :        0.012 s           0.012 s
  | Solution of K.-S. eqns.                    :        0.004 s           0.001 s
  | Total energy evaluation                    :        0.004 s           0.001 s
------------------------------------------------------------

------------------------------------------------------------
          Begin self-consistency iteration #    7

  Date     :  20140812, Time     :  112605.782
------------------------------------------------------------
  Evaluating new KS density.
  Integration grid: deviation in total charge (<rho> - N_e) =  -4.440892E-15
  Pulay mixing of updated and previous charge densities.

  Evaluating partitioned Hartree potential by multipole expansion.
  | Analytical far-field extrapolation by fixed multipoles:
  | Hartree multipole sum: apparent total charge =  -0.861167E-07
  Summing up the Hartree potential.
  Time summed over all CPUs for potential: real work        1.041 s, elapsed        1.054 s
  | RMS charge density error from multipole expansion :   0.434707E-04

  Integrating Hamiltonian matrix: batch-based integration.
  Time summed over all CPUs for integration: real work        1.016 s, elapsed        1.029 s
  Evaluating the exchange matrix ... 

  Updating Kohn-Sham eigenvalues, eigenvectors, occupation numbers, and Fermi level.
  Solving generalized eigenproblem
  Updating Kohn-Sham eigenvalues and eigenfunctions.
  Solving real generalised eigenvalue problem by standard LAPACK (fast)
  Determining occupation numbers for Kohn-Sham eigenstates.
  | Chemical potential (Fermi level) in eV                 : -.62694743E+01
  | Error in electron count due to remaining E_F inaccuracy: 0.00000000E+00
  | Maximum occupation number of highest empty state:  0.00E+00

  Highest occupied state (VBM) at     -7.91277529 eV
  | Occupation number:      2.00000000

  Lowest unoccupied state (CBM) at    -4.62617339 eV
  | Occupation number:      0.00000000

  Overall HOMO-LUMO gap:      3.28660189 eV.

  Total energy components:
  | Sum of eigenvalues            :          -0.58157829 Ha         -15.82555058 eV
  | XC energy correction          :           0.31162372 Ha           8.47971292 eV
  | XC potential correction       :           0.00000000 Ha           0.00000000 eV
  | Free-atom electrostatic energy:          -0.56553072 Ha         -15.38887390 eV
  | Hartree energy correction     :           0.05731956 Ha           1.55974455 eV
  | Entropy correction            :           0.00000000 Ha           0.00000000 eV
  | ---------------------------
  | Total energy                  :          -0.77816573 Ha         -21.17496701 eV
  | Total energy, T -> 0          :          -0.77816573 Ha         -21.17496701 eV  <-- do not rely on this value for anything but (periodic) metals
  | Electronic free energy        :          -0.77816573 Ha         -21.17496701 eV

  Derived energy quantities:
  | Kinetic energy                :           0.69607371 Ha          18.94112928 eV
  | Electrostatic energy          :          -1.16261572 Ha         -31.63638337 eV
  | Energy correction for multipole
  | error in Hartree potential    :          -0.00000078 Ha          -0.00002128 eV
  | Sum of eigenvalues per atom                           :          -7.91277529 eV
  | Total energy (T->0) per atom                          :         -10.58748350 eV  <-- do not rely on this value for anything but (periodic) metals
  | Electronic free energy per atom                       :         -10.58748350 eV

  Self-consistency convergence accuracy:
  | Change of charge density      : 0.1051E-04
  | Change of sum of eigenvalues  : -.3081E-03 eV
  | Change of total energy        : 0.1972E-03 eV

  End self-consistency iteration #     7       :  max(cpu_time)    wall_clock(cpu1)
  | Time for this iteration                    :        0.756 s           0.757 s
  | Charge density update                      :        0.132 s           0.131 s
  | Density mixing                             :        0.024 s           0.024 s
  | Hartree multipole update                   :        0.068 s           0.066 s
  | Hartree multipole summation                :        0.264 s           0.265 s
  | Integration                                :        0.256 s           0.257 s
  | Fock matrix evaluation                     :        0.012 s           0.012 s
  | Solution of K.-S. eqns.                    :        0.004 s           0.001 s
  | Total energy evaluation                    :        0.000 s           0.001 s
------------------------------------------------------------

------------------------------------------------------------
          Begin self-consistency iteration #    8

  Date     :  20140812, Time     :  112606.539
------------------------------------------------------------
  Evaluating new KS density.
  Integration grid: deviation in total charge (<rho> - N_e) =  -7.105427E-15
  Pulay mixing of updated and previous charge densities.

  Evaluating partitioned Hartree potential by multipole expansion.
  | Analytical far-field extrapolation by fixed multipoles:
  | Hartree multipole sum: apparent total charge =  -0.861167E-07
  Summing up the Hartree potential.
  Time summed over all CPUs for potential: real work        1.035 s, elapsed        1.040 s
  | RMS charge density error from multipole expansion :   0.434704E-04

  Integrating Hamiltonian matrix: batch-based integration.
  Time summed over all CPUs for integration: real work        1.002 s, elapsed        1.018 s
  Evaluating the exchange matrix ... 

  Updating Kohn-Sham eigenvalues, eigenvectors, occupation numbers, and Fermi level.
  Solving generalized eigenproblem
  Updating Kohn-Sham eigenvalues and eigenfunctions.
  Solving real generalised eigenvalue problem by standard LAPACK (fast)
  Determining occupation numbers for Kohn-Sham eigenstates.
  | Chemical potential (Fermi level) in eV                 : -.62694721E+01
  | Error in electron count due to remaining E_F inaccuracy: 0.00000000E+00
  | Maximum occupation number of highest empty state:  0.00E+00

  Highest occupied state (VBM) at     -7.91277267 eV
  | Occupation number:      2.00000000

  Lowest unoccupied state (CBM) at    -4.62617158 eV
  | Occupation number:      0.00000000

  Overall HOMO-LUMO gap:      3.28660108 eV.

  Total energy components:
  | Sum of eigenvalues            :          -0.58157810 Ha         -15.82554533 eV
  | XC energy correction          :           0.31162265 Ha           8.47968371 eV
  | XC potential correction       :           0.00000000 Ha           0.00000000 eV
  | Free-atom electrostatic energy:          -0.56553072 Ha         -15.38887390 eV
  | Hartree energy correction     :           0.05731933 Ha           1.55973831 eV
  | Entropy correction            :           0.00000000 Ha           0.00000000 eV
  | ---------------------------
  | Total energy                  :          -0.77816684 Ha         -21.17499722 eV
  | Total energy, T -> 0          :          -0.77816684 Ha         -21.17499722 eV  <-- do not rely on this value for anything but (periodic) metals
  | Electronic free energy        :          -0.77816684 Ha         -21.17499722 eV

  Derived energy quantities:
  | Kinetic energy                :           0.69607184 Ha          18.94107838 eV
  | Electrostatic energy          :          -1.16261603 Ha         -31.63639189 eV
  | Energy correction for multipole
  | error in Hartree potential    :          -0.00000078 Ha          -0.00002128 eV
  | Sum of eigenvalues per atom                           :          -7.91277267 eV
  | Total energy (T->0) per atom                          :         -10.58749861 eV  <-- do not rely on this value for anything but (periodic) metals
  | Electronic free energy per atom                       :         -10.58749861 eV

  Self-consistency convergence accuracy:
  | Change of charge density      : 0.3925E-07
  | Change of sum of eigenvalues  : 0.5245E-05 eV
  | Change of total energy        : -.3021E-04 eV

  End self-consistency iteration #     8       :  max(cpu_time)    wall_clock(cpu1)
  | Time for this iteration                    :        0.752 s           0.751 s
  | Charge density update                      :        0.128 s           0.127 s
  | Density mixing                             :        0.028 s           0.029 s
  | Hartree multipole update                   :        0.068 s           0.064 s
  | Hartree multipole summation                :        0.260 s           0.262 s
  | Integration                                :        0.256 s           0.254 s
  | Fock matrix evaluation                     :        0.016 s           0.013 s
  | Solution of K.-S. eqns.                    :        0.004 s           0.001 s
  | Total energy evaluation                    :        0.000 s           0.001 s
------------------------------------------------------------

------------------------------------------------------------
          Begin self-consistency iteration #    9

  Date     :  20140812, Time     :  112607.290
------------------------------------------------------------
  Evaluating new KS density.
  Integration grid: deviation in total charge (<rho> - N_e) =   5.329071E-15
  Pulay mixing of updated and previous charge densities.

  Evaluating partitioned Hartree potential by multipole expansion.
  | Analytical far-field extrapolation by fixed multipoles:
  | Hartree multipole sum: apparent total charge =  -0.861165E-07
  Summing up the Hartree potential.
  Time summed over all CPUs for potential: real work        1.037 s, elapsed        1.047 s
  | RMS charge density error from multipole expansion :   0.434705E-04

  Integrating Hamiltonian matrix: batch-based integration.
  Time summed over all CPUs for integration: real work        1.023 s, elapsed        1.047 s
  Evaluating the exchange matrix ... 

  Updating Kohn-Sham eigenvalues, eigenvectors, occupation numbers, and Fermi level.
  Solving generalized eigenproblem
  Updating Kohn-Sham eigenvalues and eigenfunctions.
  Solving real generalised eigenvalue problem by standard LAPACK (fast)
  Determining occupation numbers for Kohn-Sham eigenstates.
  | Chemical potential (Fermi level) in eV                 : -.62694727E+01
  | Error in electron count due to remaining E_F inaccuracy: 0.00000000E+00
  | Maximum occupation number of highest empty state:  0.00E+00

  Highest occupied state (VBM) at     -7.91277316 eV
  | Occupation number:      2.00000000

  Lowest unoccupied state (CBM) at    -4.62617223 eV
  | Occupation number:      0.00000000

  Overall HOMO-LUMO gap:      3.28660093 eV.

  Total energy components:
  | Sum of eigenvalues            :          -0.58157814 Ha         -15.82554632 eV
  | XC energy correction          :           0.31162262 Ha           8.47968292 eV
  | XC potential correction       :           0.00000000 Ha           0.00000000 eV
  | Free-atom electrostatic energy:          -0.56553072 Ha         -15.38887390 eV
  | Hartree energy correction     :           0.05731947 Ha           1.55974206 eV
  | Entropy correction            :           0.00000000 Ha           0.00000000 eV
  | ---------------------------
  | Total energy                  :          -0.77816677 Ha         -21.17499524 eV
  | Total energy, T -> 0          :          -0.77816677 Ha         -21.17499524 eV  <-- do not rely on this value for anything but (periodic) metals
  | Electronic free energy        :          -0.77816677 Ha         -21.17499524 eV

  Derived energy quantities:
  | Kinetic energy                :           0.69607158 Ha          18.94107146 eV
  | Electrostatic energy          :          -1.16261573 Ha         -31.63638379 eV
  | Energy correction for multipole
  | error in Hartree potential    :          -0.00000078 Ha          -0.00002128 eV
  | Sum of eigenvalues per atom                           :          -7.91277316 eV
  | Total energy (T->0) per atom                          :         -10.58749762 eV  <-- do not rely on this value for anything but (periodic) metals
  | Electronic free energy per atom                       :         -10.58749762 eV

  Self-consistency convergence accuracy:
  | Change of charge density      : 0.4581E-07
  | Change of sum of eigenvalues  : -.9892E-06 eV
  | Change of total energy        : 0.1977E-05 eV

  End self-consistency iteration #     9       :  max(cpu_time)    wall_clock(cpu1)
  | Time for this iteration                    :        0.776 s           0.781 s
  | Charge density update                      :        0.132 s           0.131 s
  | Density mixing                             :        0.032 s           0.032 s
  | Hartree multipole update                   :        0.072 s           0.072 s
  | Hartree multipole summation                :        0.264 s           0.263 s
  | Integration                                :        0.264 s           0.262 s
  | Fock matrix evaluation                     :        0.012 s           0.018 s
  | Solution of K.-S. eqns.                    :        0.004 s           0.002 s
  | Total energy evaluation                    :        0.000 s           0.000 s
------------------------------------------------------------

------------------------------------------------------------
          Begin self-consistency iteration #   10

  Date     :  20140812, Time     :  112608.071
------------------------------------------------------------
  Evaluating new KS density.
  Integration grid: deviation in total charge (<rho> - N_e) =  -6.883383E-15
  Pulay mixing of updated and previous charge densities.

  Evaluating partitioned Hartree potential by multipole expansion.
  | Analytical far-field extrapolation by fixed multipoles:
  | Hartree multipole sum: apparent total charge =  -0.861165E-07
  Summing up the Hartree potential.
  Time summed over all CPUs for potential: real work        1.031 s, elapsed        1.042 s
  | RMS charge density error from multipole expansion :   0.434705E-04

  Integrating Hamiltonian matrix: batch-based integration.
  Time summed over all CPUs for integration: real work        1.014 s, elapsed        1.053 s
  Evaluating the exchange matrix ... 

  Updating Kohn-Sham eigenvalues, eigenvectors, occupation numbers, and Fermi level.
  Solving generalized eigenproblem
  Updating Kohn-Sham eigenvalues and eigenfunctions.
  Solving real generalised eigenvalue problem by standard LAPACK (fast)
  Determining occupation numbers for Kohn-Sham eigenstates.
  | Chemical potential (Fermi level) in eV                 : -.62694723E+01
  | Error in electron count due to remaining E_F inaccuracy: 0.00000000E+00
  | Maximum occupation number of highest empty state:  0.00E+00

  Highest occupied state (VBM) at     -7.91277281 eV
  | Occupation number:      2.00000000

  Lowest unoccupied state (CBM) at    -4.62617184 eV
  | Occupation number:      0.00000000

  Overall HOMO-LUMO gap:      3.28660096 eV.

  Total energy components:
  | Sum of eigenvalues            :          -0.58157811 Ha         -15.82554562 eV
  | XC energy correction          :           0.31162263 Ha           8.47968324 eV
  | XC potential correction       :           0.00000000 Ha           0.00000000 eV
  | Free-atom electrostatic energy:          -0.56553072 Ha         -15.38887390 eV
  | Hartree energy correction     :           0.05731941 Ha           1.55974040 eV
  | Entropy correction            :           0.00000000 Ha           0.00000000 eV
  | ---------------------------
  | Total energy                  :          -0.77816680 Ha         -21.17499588 eV
  | Total energy, T -> 0          :          -0.77816680 Ha         -21.17499588 eV  <-- do not rely on this value for anything but (periodic) metals
  | Electronic free energy        :          -0.77816680 Ha         -21.17499588 eV

  Derived energy quantities:
  | Kinetic energy                :           0.69607170 Ha          18.94107461 eV
  | Electrostatic energy          :          -1.16261586 Ha         -31.63638725 eV
  | Energy correction for multipole
  | error in Hartree potential    :          -0.00000078 Ha          -0.00002128 eV
  | Sum of eigenvalues per atom                           :          -7.91277281 eV
  | Total energy (T->0) per atom                          :         -10.58749794 eV  <-- do not rely on this value for anything but (periodic) metals
  | Electronic free energy per atom                       :         -10.58749794 eV

  Self-consistency convergence accuracy:
  | Change of charge density      : 0.3638E-07
  | Change of sum of eigenvalues  : 0.7050E-06 eV
  | Change of total energy        : -.6361E-06 eV

  Writing Kohn-Sham eigenvalues.

  State    Occupation    Eigenvalue [Ha]    Eigenvalue [eV]
      1       2.00000          -0.290789           -7.91277
      2       0.00000          -0.170009           -4.62617
      3       0.00000           0.172463            4.69297
      4       0.00000           0.208275            5.66745
      5       0.00000           0.371473           10.10829
      6       0.00000           0.383580           10.43776
      7       0.00000           0.383580           10.43776
      8       0.00000           0.390313           10.62094
      9       0.00000           0.390313           10.62094
     10       0.00000           0.416985           11.34673
     11       0.00000           0.966305           26.29450
     12       0.00000           0.981437           26.70626
     13       0.00000           1.200301           32.66186
     14       0.00000           1.203553           32.75033
     15       0.00000           1.203553           32.75033
     16       0.00000           1.205242           32.79632
     17       0.00000           1.205242           32.79632
     18       0.00000           1.205649           32.80739
     19       0.00000           1.205649           32.80739
     20       0.00000           1.208183           32.87634
     21       0.00000           1.208183           32.87634
     22       0.00000           1.219512           33.18461
     23       0.00000           1.800302           48.98870
     24       0.00000           1.824566           49.64897
     25       0.00000           1.824566           49.64897
     26       0.00000           1.835400           49.94378
     27       0.00000           1.835400           49.94378
     28       0.00000           1.887288           51.35572
     29       0.00000           3.476845           94.60977
     30       0.00000           3.477398           94.62480
     31       0.00000           3.477398           94.62480
     32       0.00000           3.477408           94.62509
     33       0.00000           3.477408           94.62509
     34       0.00000           3.477414           94.62524
     35       0.00000           3.477414           94.62524
     36       0.00000           3.477646           94.63157
     37       0.00000           3.477646           94.63157
     38       0.00000           3.477813           94.63612
     39       0.00000           3.477813           94.63612
     40       0.00000           3.478474           94.65408
     41       0.00000           3.478474           94.65408
     42       0.00000           3.479702           94.68752
     43       0.00000           3.843947          104.59913
     44       0.00000           3.875066          105.44590
     45       0.00000           5.305196          144.36174
     46       0.00000           5.315627          144.64557
     47       0.00000           5.315627          144.64557
     48       0.00000           5.320472          144.77741
     49       0.00000           5.320472          144.77741
     50       0.00000           5.321373          144.80194
     51       0.00000           5.321373          144.80194
     52       0.00000           5.326871          144.95154
     53       0.00000           5.326871          144.95154
     54       0.00000           5.350420          145.59235
     55       0.00000           8.493625          231.12331
     56       0.00000           8.553724          232.75867
     57       0.00000           8.553724          232.75867
     58       0.00000           8.580852          233.49687
     59       0.00000           8.580852          233.49687
     60       0.00000           8.705187          236.88019
     61       0.00000          21.849880          594.56549
     62       0.00000          21.967571          597.76801

  Highest occupied state (VBM) at     -7.91277281 eV
  | Occupation number:      2.00000000

  Lowest unoccupied state (CBM) at    -4.62617184 eV
  | Occupation number:      0.00000000

  Overall HOMO-LUMO gap:      3.28660096 eV.

  Self-consistency cycle converged.

  End self-consistency iteration #    10       :  max(cpu_time)    wall_clock(cpu1)
  | Time for this iteration                    :        0.792 s           0.793 s
  | Charge density update                      :        0.156 s           0.153 s
  | Density mixing                             :        0.036 s           0.036 s
  | Hartree multipole update                   :        0.064 s           0.064 s
  | Hartree multipole summation                :        0.264 s           0.262 s
  | Integration                                :        0.264 s           0.264 s
  | Fock matrix evaluation                     :        0.012 s           0.012 s
  | Solution of K.-S. eqns.                    :        0.004 s           0.001 s
  | Total energy evaluation                    :        0.000 s           0.000 s
------------------------------------------------------------

  Energy and forces in a compact form:
  | Total energy uncorrected      :         -0.211749958801086E+02 eV
  | Total energy corrected        :         -0.211749958801086E+02 eV  <-- do not rely on this value for anything but (periodic) metals
  | Electronic free energy        :         -0.211749958801086E+02 eV

  ------------------------------------ 
  Start decomposition of the XC Energy 
  ------------------------------------ 
  Hartree-Fock part   :          0.311622631 Ha              8.479683243 eV
  ------------------------------------ 
  X Energy            :          0.311622631 Ha              8.479683243 eV
  C Energy GGA        :          0.000000000 Ha              0.000000000 eV
  Total XC Energy     :          0.311622631 Ha              8.479683243 eV
  LDA X and C from self-consistent density 
  X Energy LDA        :         -0.346218254 Ha             -9.421078019 eV
  C Energy LDA        :         -0.074679666 Ha             -2.032137118 eV
  ------------------------------------ 
  End decomposition of the XC Energy 
  ------------------------------------ 
---------------------------------------------
---------------------------------------------
 | MP2 calculation starts ...
---------------------------------------------

  | Note : Resolution of identity applied 
  | Note : Non spin-polarized system 
---------------------------------------------
  | Homo level                                        1
  | Lumo level                                        2
  | Total Number of states                           62
  | Number of k-points                                1
  | Homo-Lumo Gap                            0.12078037 Ha          3.28660096 eV
---------------------------------------------
  The ovlp_3KS matrix takes another      0 MiB x      4 procs =       0.000 GiB.


---------------------------------------------
| Sum of correlation terms 
---------------------------------------------
  | Pair state     1                    :         -5.30294708 eV         -5.30294708 eV

---------------------------------------------
| Correlation energy spectrum 
---------------------------------------------
  |     2    :         -0.17000869        -0.17134764
  |     3    :          0.17246336        -0.00165739
  |     4    :          0.20827502        -0.00690435
  |     5    :          0.37147273        -0.00105774
  |     6    :          0.38358048        -0.00097228
  |     7    :          0.38358048        -0.00097228
  |     8    :          0.39031252        -0.00087115
  |     9    :          0.39031252        -0.00087115
  |    10    :          0.41698455        -0.00099999
  |    11    :          0.96630509        -0.00128473
  |    12    :          0.98143709        -0.00272891
  |    13    :          1.20030134        -0.00010994
  |    14    :          1.20355253        -0.00010238
  |    15    :          1.20355253        -0.00010238
  |    16    :          1.20524242        -0.00009748
  |    17    :          1.20524242        -0.00009748
  |    18    :          1.20564936        -0.00009663
  |    19    :          1.20564936        -0.00009663
  |    20    :          1.20818342        -0.00009825
  |    21    :          1.20818342        -0.00009825
  |    22    :          1.21951194        -0.00011732
  |    23    :          1.80030172        -0.00046021
  |    24    :          1.82456622        -0.00044938
  |    25    :          1.82456622        -0.00044938
  |    26    :          1.83540011        -0.00044635
  |    27    :          1.83540011        -0.00044635
  |    28    :          1.88728793        -0.00042849
  |    29    :          3.47684522        -0.00002030
  |    30    :          3.47739751        -0.00001965
  |    31    :          3.47739751        -0.00001965
  |    32    :          3.47740806        -0.00001964
  |    33    :          3.47740806        -0.00001964
  |    34    :          3.47741371        -0.00002016
  |    35    :          3.47741371        -0.00002016
  |    36    :          3.47764641        -0.00001992
  |    37    :          3.47764642        -0.00001992
  |    38    :          3.47781341        -0.00001987
  |    39    :          3.47781341        -0.00001987
  |    40    :          3.47847367        -0.00002001
  |    41    :          3.47847367        -0.00002001
  |    42    :          3.47970245        -0.00002017
  |    43    :          3.84394749        -0.00026080
  |    44    :          3.87506569        -0.00030943
  |    45    :          5.30519627        -0.00003752
  |    46    :          5.31562702        -0.00003737
  |    47    :          5.31562702        -0.00003737
  |    48    :          5.32047218        -0.00003724
  |    49    :          5.32047218        -0.00003724
  |    50    :          5.32137332        -0.00003725
  |    51    :          5.32137332        -0.00003725
  |    52    :          5.32687109        -0.00003734
  |    53    :          5.32687109        -0.00003734
  |    54    :          5.35042049        -0.00003736
  |    55    :          8.49362537        -0.00004701
  |    56    :          8.55372373        -0.00004615
  |    57    :          8.55372373        -0.00004615
  |    58    :          8.58085211        -0.00004561
  |    59    :          8.58085211        -0.00004561
  |    60    :          8.70518682        -0.00004403
  |    61    :         21.84988033        -0.00000910
  |    62    :         21.96757058        -0.00000904
---------------------------------------------
 
 
 
          ---------------------------------------------
          | MP2 calculation comes to finish ...  
 
          ---------------------------------------------
          | Total time for calculating MP2 correction              :        0.004 s

          ---------------------------------------------

---------------------------------------------
  | HF Energy                      :         -0.77816680 Ha        -21.17499588 eV
  | MP2 correction                 :         -0.19487972 Ha         -5.30294708 eV
---------------------------------------------
  | Total Energy + MP2 correction  :         -0.97304652 Ha        -26.47794296 eV
---------------------------------------------

------------------------------------------------------------------------------
  Final output of selected total energy values:

  The following output summarizes some interesting total energy values
  at the end of a run (AFTER all relaxation, molecular dynamics, etc.).

  | Total energy of the DFT / Hartree-Fock s.c.f. calculation      :            -21.174995880 eV
  | Final zero-broadening corrected energy (caution - metals only) :            -21.174995880 eV
  | Total energy after the post-s.c.f. correlation calculation     :            -26.477942958 eV
  | For reference only, the value of 1 Hartree used in FHI-aims is :             27.211384500 eV

  Before relying on these values, please be sure to understand exactly which
  total energy value is referred to by a given number. Different objects may
  all carry the same name 'total energy'. Definitions:

  Total energy of the DFT / Hartree-Fock s.c.f. calculation:
  | Note that this energy does not include ANY quantities calculated after the
  | s.c.f. cycle, in particular not ANY RPA, MP2, etc. many-body perturbation terms.

  Final zero-broadening corrected energy:
  | For metallic systems only, a broadening of the occupation numbers at the Fermi
  | level can be extrapolated back to zero broadening by an electron-gas inspired
  | formula. For all systems that are not real metals, this value can be
  | meaningless and should be avoided.

  Total energy of the post-s.c.f. correlation calculation        :
  | The actual meaning of this energy depends on the setting for the 'total_energy_method'
  | keyword (MP2, RPA, rPT2, etc). If not sure, compare to the results listed above.

------------------------------------------------------------------------------

  Methods described in the following list of references were used in this FHI-aims run.
  If you publish the results, please make sure to cite these reference if they apply.
  FHI-aims is an academic code, and for our developers (often, Ph.D. students
  and postdocs), scientific credit in the community is essential.
  Thank you for helping us!

  For any use of FHI-aims, please cite:

    Volker Blum, Ralf Gehrke, Felix Hanke, Paula Havu, Ville Havu,
    Xinguo Ren, Karsten Reuter, and Matthias Scheffler,
    "Ab initio molecular simulations with numeric atom-centered orbitals"
    Computer Physics Communications 180, 2175-2196 (2009).
    http://dx.doi.org/10.1016/j.cpc.2009.06.022

  For Hartree-Fock, hybrid functionals, or many-body perturbation theory used in your run, please cite:

    Xinguo Ren, Patrick Rinke, Volker Blum, Juergen Wieferink, Alex Tkatchenko,
    Andrea Sanfilippo, Karsten Reuter, and Matthias Scheffler,
    "Resolution-of-identity approach to Hartree-Fock, hybrid density functionals,
     RPA, MP2, and GW with numeric atom-centered orbital basis functions"
    New Journal of Physics 14, 053020 (2012).
    http://dx.doi.org/10.1088/1367-2630/14/5/053020

  For the NAO-VCC-nZ basis sets used in this calculation, please cite:

    Igor Ying Zhang, Xinguo Ren, Patrick Rinke, Volker Blum, and Matthias Scheffler,
    "Numeric atom-centered-orbital basis sets with valence-correlation consistency from H to Ar"
    New Journal of Physics 15, 123033 (2013).
    http://dx.doi.org/10.1088/1367-2630/15/12/123033

  For the real-space grid partitioning and parallelization used in this calculation, please cite:

    Ville Havu, Volker Blum, Paula Havu, and Matthias Scheffler,
    "Efficient O(N) integration for all-electron electronic
    structure calculation using numerically tabulated basis functions"
    Journal of Computational Physics 228, 8367-8379 (2009).
    http://dx.doi.org/10.1016/j.jcp.2009.08.008

  Of course, there are many other important community references, e.g., those cited in the
  above references. Our list is limited to references that describe implementations in the FHI-aims
  code. The reason is purely practical (length of this list) - please credit others as well.

------------------------------------------------------------
          Leaving FHI-aims.
          Date     :  20140812, Time     :  112608.901

          Computational steps:
          | Number of self-consistency cycles          :           10

          Detailed time accounting                     :  max(cpu_time)    wall_clock(cpu1)
          | Total time                                 :       31.986 s          32.036 s
          | Preparation time                           :        0.148 s           0.163 s
          | Grid partitioning                          :        0.244 s           0.243 s
          | Preloading free-atom quantities on grid    :        0.068 s           0.066 s
          | Free-atom superposition energy             :        0.036 s           0.036 s
          | Total time for integrations                :        3.052 s           3.036 s
          | Product basis setup: Total time            :        0.000 s           0.000 s
          | Product basis: | 3-center integrations     :       22.909 s          22.933 s
          | Product basis: | 2-center integrations     :        0.256 s           0.254 s
          | Product basis: | 2-center linear algebra   :        0.088 s           0.088 s
          | Product basis: | 3-center x 2-center       :        0.028 s           0.028 s
          | Total time evaluating exchange matrix      :        0.124 s           0.127 s
          | Transforming ovlp_3fn to ovlp_3KS          :        0.012 s           0.014 s
          | Total time for solution of K.-S. equations :        0.044 s           0.018 s
          | Total time for density update              :        1.348 s           1.328 s
          | Total time for mixing                      :        0.188 s           0.186 s
          | Total time for Hartree multipole update    :        0.672 s           0.661 s
          | Total time for Hartree multipole sum       :        2.644 s           2.632 s
          | Total time for total energy evaluation     :        0.012 s           0.005 s

          Have a nice day.
------------------------------------------------------------
