  MPI-parallelism will be employed.
------------------------------------------------------------
          Invoking FHI-aims ...
          Version 072414
          Compiled on 2014/08/06 at 00:00:04 on host theobook58.

          When using FHI-aims, please cite the following reference:

          Volker Blum, Ralf Gehrke, Felix Hanke, Paula Havu,
          Ville Havu, Xinguo Ren, Karsten Reuter, and Matthias Scheffler,
          'Ab Initio Molecular Simulations with Numeric Atom-Centered Orbitals: FHI-aims',
          Computer Physics Communications 180, 2175-2196 (2009)

          For any questions about FHI-aims, please visit the aimsclub website
          with its forums and wiki. Contributions to both the forums and the
          wiki are warmly encouraged - they are for you, and everyone is welcome there.

------------------------------------------------------------

  Date     :  20140812, Time     :  112432.256
  Time zero on CPU 1             :   0.160000000000000E-01  s.
  Internal wall clock time zero  :           177074672.256  s.

  Using        4 parallel tasks.
  Task        0 on host theobook58 reporting.
  Task        1 on host theobook58 reporting.
  Task        2 on host theobook58 reporting.
  Task        3 on host theobook58 reporting.

  Performing system and environment tests:
  | Environment variable OMP_NUM_THREADS correctly set to 1.
  | Stacksize not measured: no C compiler
  | Checking for scalapack...
  | No scalapack compiled in.

  Obtaining array dimensions for all initial allocations:
  
  -----------------------------------------------------------------------
  Parsing control.in (first pass over file, find array dimensions only).
  The contents of control.in will be repeated verbatim below
  unless switched off by setting 'verbatim_writeout .false.' .
  in the first line of control.in .
  -----------------------------------------------------------------------
  
  xc                      hf
  total_energy_method     mp2
  relativistic            none
  occupation_type         integer 0.0001
  mixer                   pulay
  n_max_pulay             10
  charge_mix_param        0.6
  sc_iter_limit           600
  sc_accuracy_rho         1E-6
  sc_accuracy_eev         1E-4
  sc_accuracy_etot        1E-6
  override_illconditioning .true.
  charge                  0
  ################################################################################
  #
  #  FHI-aims code project
  # Igor Ying Zhang and Xinguo Ren, Fritz Haber Institute Berlin, 2012
  #
  #  Suggested "NAO-VCC-4Z" defaults for H atom (to be pasted into control.in file)
  #
  #  Please cite:
  #
  #  Igor Ying Zhang, Xinguo Ren, Patrick Rinke, Volker Blum, and Matthias Scheffler,
  #  "Numeric atom-centered-orbital basis sets with valence-correlation consistency from H to Ar"
  #  New Journal of Physics 15, 123033 (2013).
  #  http://dx.doi.org/10.1088/1367-2630/15/12/123033
  #
  ################################################################################
    species        H
  #     set basis set reference for FHI-aims output
      cite_reference NAO-VCC-2013
  #     global species definitions
      nucleus             1
      mass                1.00794
  #
      l_hartree           6
  #
      cut_pot             4.0  2.0  1.0
      basis_dep_cutoff    0e-4
  #
      radial_base         24 7.0
  radial_multiplier               6
      angular_grids       specified
        division   0.1930   50
        division   0.3175  110
        division   0.4293  194
        division   0.5066  302
        division   0.5626  434
        division   0.5922  590
  #      division   0.6227  974
  #      division   0.6868 1202
        outer_grid  770
  #      outer_grid  434
  ################################################################################
  #
  #  Definition of "minimal" basis
  #
  ################################################################################
  #     valence basis states
      valence      1  s   1.
  #     ion occupancy
      ion_occ      1  s   0.5
  ################################################################################
  
  
   basis_acc              1e-04
  #============================================
  # Optimization in      H for       NAO-VCC-4Z
  #============================================
  # (sp) correlation set
   hydro     1     s      1.15655525
   hydro     1     s      1.68684502
   hydro     1     s      2.46027686
   hydro     2     p      2.92145897
   hydro     2     p      4.14501835
   hydro     2     p      5.88102632
  # polarization set
   hydro     3     d      6.41446874
   hydro     3     d      7.67536483
   hydro     4     f     10.80870049
  # (sp) enhanced minimal set
   hydro     1     s      3.58833335
  
  -----------------------------------------------------------------------
  Completed first pass over input file control.in .
  -----------------------------------------------------------------------
  
  
  -----------------------------------------------------------------------
  Parsing geometry.in (first pass over file, find array dimensions only).
  The contents of geometry.in will be repeated verbatim below
  unless switched off by setting 'verbatim_writeout .false.' .
  in the first line of geometry.in .
  -----------------------------------------------------------------------
  
  atom             0.0             0.0             0.0    H
  atom             0.0             0.0             4.0    H
  
  -----------------------------------------------------------------------
  Completed first pass over input file geometry.in .
  -----------------------------------------------------------------------
  

  Basic array size parameters:
  | Number of species                 :        1
  | Number of atoms                   :        2
  | Max. basis fn. angular momentum   :        3
  | Max. atomic/ionic basis occupied n:        1
  | Max. number of basis fn. types    :        2
  | Max. radial fns per species/type  :       10
  | Max. logarithmic grid size        :     1131
  | Max. radial integration grid size :      149
  | Max. angular integration grid size:      770
  | Max. angular grid division number :        8
  | Radial grid for Hartree potential :     1131
  | Number of spin channels           :        1

------------------------------------------------------------
          Reading file control.in.
------------------------------------------------------------
 
  Hartree-Fock calculation starts ...... 
  Attention: this version of Hartree-Fock employs an auxiliary basis. 
 
  MP2 correlation energy calculation will be started after the DFT/HF calculation.
  Non-relativistic treatment of kinetic energy.
  Occupation type: Integer occupation.
  Using pulay charge density mixing.
  Pulay mixing - number of memorized iterations:   10
  Charge density mixing - mixing parameter:     0.6000
  Maximum number of s.-c. iterations  :   600
  Convergence accuracy of self-consistent charge density: 0.1000E-05
  Convergence accuracy of sum of eigenvalues: 0.1000E-03
  Convergence accuracy of total energy: 0.1000E-05
  override_illconditioning: Explicitly overriding any built-in checks for an ill-conditioned overlap matrix.
  *** WARNING: If you use this flag, you should really know what you are doing.
  *** DO NOT keep this flag set by default in all your control.in files.
  Charge =   0.000000E+00: Neutral system requested explicitly.
 
  Reading configuration options for species H                   .
  | Found nuclear charge :   1.0000
  | Found atomic mass :    1.00794000000000      amu
  | Found l_max for Hartree potential  :   6
  | Found cutoff potl. onset [A], width [A], scale factor :    4.00000    2.00000    1.00000
  | Threshold for basis-dependent cutoff potential is   0.000000E+00
  | Found data for basic radial integration grid :    24 points, outermost radius =    7.000 A
  | Found multiplier for basic radial grid :   6
  | Found angular grid specification: user-specified.
  | Specified grid contains     7 separate shells.
  | Check grid settings after all constraints further below.
  | Found free-atom valence shell :  1 s   1.000
  | No ionic wave fns used. Skipping ion_occ.
  | Found basis singularity cutoff : 0.1000E-03
  | Found hydrogenic basis function :  1 s   1.157
  | Found hydrogenic basis function :  1 s   1.687
  | Found hydrogenic basis function :  1 s   2.460
  | Found hydrogenic basis function :  2 p   2.921
  | Found hydrogenic basis function :  2 p   4.145
  | Found hydrogenic basis function :  2 p   5.881
  | Found hydrogenic basis function :  3 d   6.414
  | Found hydrogenic basis function :  3 d   7.675
  | Found hydrogenic basis function :  4 f  10.809
  | Found hydrogenic basis function :  1 s   3.588
  Species H                   : Missing cutoff potential type.
  Defaulting to exp(1/x)/(1-x)^2 type cutoff potential.
  Species H : No 'logarithmic' tag. Using default grid for free atom:
  | Default logarithmic grid data [bohr] : 0.1000E-03 0.1000E+03 0.1012E+01
  Species H                   : Using default innermost maximum threshold i_radial=  2 for radial functions.
  Species H                   : Default cutoff onset for free atom density etc. is infinite
  since the product basis is used (hybrid functionals, Hartree-Fock, GW etc.).
  Species H                   : Basic radial grid will be enhanced according to radial_multiplier =   6, to contain   149 grid points.
 
  Finished reading input file 'control.in'. Consistency checks are next.
 
  Species H: Using default value for prodbas_acc =   1.000000E-02.
  Species H: Using default value max_l_prodbas =     5.
  Target number of points in a grid batch is not set. Defaulting to  100
  Method for grid partitioning is not set. Defaulting to parallel hash+maxmin partitioning.
  Batch size limit is not set. Defaulting to    200
  By default, will store active basis functions for each batch.
  If in need of memory, prune_basis_once .false. can be used to disable this option.
  communication_type for Hartree potential was not specified.
  Defaulting to calc_hartree .
  Pulay mixer: Number of initial linear mixing iterations not set.
  Defaulting to    0 iterations.
  Work space size for distributed Hartree potential not set.
  Defaulting to   0.200000E+03 MB.
  Algorithm-dependent basis array size parameters:
  | n_max_pulay                         :       10
  Calculation of forces was not defined in control.in. No forces will be calculated.
  Geometry relaxation not requested: no relaxation will be performed.
  No accuracy limit for integral partition fn. given. Defaulting to 0.1000E-14.
  No threshold value for u(r) in integrations given. Defaulting to 0.1000E-05.
  No accuracy for occupation numbers given. Defaulting to 0.1000E-07.
  No threshold value for occupation numbers given. Defaulting to 0.0000E+00.
  No accuracy for fermi level given. Defaulting to 0.1000E-19.
  Maximum # of iterations to find E_F not set. Defaulting to  200.
  Preferred method for the eigenvalue solver ('KS_method') not specified in 'control.in'.
  Calling blacs routine to test compilation state
  The best choice would be 'elpa', but your version of FHI-aims is compiled without scalapack support.
  Defaulting to 'lapack_fast' instead (serial solution, time will not improve with more CPUs).
  Will not use alltoall communication since running on < 1024 CPUs.
  Threshold for basis singularities not set.
  Default threshold for basis singularities: 0.1000E-04
  partition_type (choice of integration weights) for integrals was not specified.
  | Using a version of the partition function of Stratmann and coworkers ('stratmann_smoother').
  | At each grid point, the set of atoms used to build the partition table is smoothly restricted to
  | only those atoms whose free-atom density would be non-zero at that grid point.
  Partitioning for Hartree potential was not defined. Using partition_type for integrals.
  | Adjusted default value of keyword multip_moments_threshold to:       0.10000000E-11
  | This value may affect high angular momentum components of the Hartree potential in periodic systems.
  Spin handling was not defined in control.in. Defaulting to unpolarized case.
  Threshold for auxiliary basis singularities not set.
  Default threshold for auxiliary basis singularities: 0.1000E-04
  No q(lm)/r^(l+1) cutoff set for long-range Hartree potential.
  | Using default value of  0.100000E-09 .
  | Verify using the multipole_threshold keyword.
  Defaulting to new monopole extrapolation.
  Density update method: automatic selection selected.
  Default to 1D ("use_logsbt") integrations for auxiliary 2-center integrals.
  Default onset of logarithmic r-grid for SBT is-38.000000000000
  Default onset of logarithmic k-grid for SBT is-25.000000000000
  Default range of logarithmic r- and k-grid for SBT is 45.000000000000
  Default number of logarithmic r- and k-grid for SBT is  4096
------------------------------------------------------------


------------------------------------------------------------
          Reading geometry description geometry.in.
------------------------------------------------------------
  Input structure read successfully.
  The structure contains        2 atoms,  and a total of          2.000 electrons.

  Input geometry:
  | No unit cell requested.
  | Atomic structure:
  |       Atom                x [A]            y [A]            z [A]
  |    1: Species H              0.000000         0.000000         0.000000
  |    2: Species H              0.000000         0.000000         4.000000
  |

  | The smallest distance between any two atoms is         4.00000000 AA.
  |
  | The first atom of this pair is atom number                      1 .
  | The second atom of this pair is atom number                     2 .

  Number of empty states per atom not set in control.in .
  | Since you are using a method that relies on the unoccupied spectrum
  | (MP2,GW,RPA et al.), will use the full Hamiltonian size (see below)
  | as the max. possible number of states (occupied plus empty).

  Structure-dependent array size parameters: 
  | Maximum number of distinct radial functions  :       11
  | Maximum number of basis functions            :       62
  | Number of Kohn-Sham states (occupied + empty):       62
------------------------------------------------------------

------------------------------------------------------------
          Preparing all fixed parts of the calculation.
------------------------------------------------------------
  Determining machine precision:
    2.225073858507201E-308
  Setting up grids for atomic and cluster calculations.

  Creating wave function, potential, and density for free atoms.

  Species: H

  List of occupied orbitals and eigenvalues:
    n    l              occ      energy [Ha]    energy [eV]
    1    0           1.0000        -0.233457        -6.3527

  Creating fixed part of basis set: Ionic, confined, hydrogenic.
 
  H                    hydrogenic:
 
  List of hydrogenic basis orbitals: 
    n    l      effective z      eigenvalue [eV]  inner max. [A]     outer max. [A]     outer radius [A]   
    1    0         1.156555       -18.1992           0.460320           0.460320           5.243229
    1    0         1.686845       -38.7143           0.315118           0.315118           4.932336
    1    0         2.460277       -82.3547           0.215718           0.215718           3.815562
    2    1         2.921459       -29.0309           0.723605           0.723605           5.243229
    2    1         4.145018       -58.4405           0.507614           0.507614           4.813203
    2    1         5.881026      -117.6432           0.360475           0.360475           3.678162
    3    2         6.414469       -62.2013           0.741515           0.741515           4.993004
    3    2         7.675365       -89.0587           0.617279           0.617279           4.583499
    4    3        10.808700       -99.3454           0.778676           0.778676           4.696947
    1    0         3.588333      -175.1887           0.147673           0.147673           2.644120
 

  Adding cutoff potential to free-atom effective potential.
  Creating atomic-like basis functions for current effective potential.

  Species H                   :

  List of atomic basis orbitals and eigenvalues:
    n    l      energy [Ha]    energy [eV]    outer radius [A]
    1    0        -0.233418        -6.3516       5.373006

  Assembling full basis from fixed parts.
  | Species H :   atomic orbital   1 s accepted.
  | Species H :    hydro orbital   1 s accepted.
  | Species H :    hydro orbital   1 s accepted.
  | Species H :    hydro orbital   1 s accepted.
  | Species H :    hydro orbital   1 s accepted.
  | Species H :    hydro orbital   2 p accepted.
  | Species H :    hydro orbital   2 p accepted.
  | Species H :    hydro orbital   2 p accepted.
  | Species H :    hydro orbital   3 d accepted.
  | Species H :    hydro orbital   3 d accepted.
  | Species H :    hydro orbital   4 f accepted.
 
  Basis size parameters after reduction:
  | Total number of radial functions:       11
  | Total number of basis functions :       62
 
  Testing on-site integration grid accuracy.
  |  Species  Function  <phi|h_atom|phi> (log., in eV)  <phi|h_atom|phi> (rad., in eV)
           1        1                 -6.3519216712                 -6.3519215989
           1        2                  8.4716038567                  8.4716058028
           1        3                 58.3749927434                 58.3750109815
           1        4                178.9024737125                178.9026031671
           1        5                456.3642310330                456.3649721232
           1        6                 16.2415699263                 16.2415699338
           1        7                 68.2932618880                 68.2932619123
           1        8                188.3801588017                188.3801587562
           1        9                 49.9849006789                 49.9849006869
           1       10                114.3821731125                114.3821730675
           1       11                 88.0899419283                 88.0899419237

  Preparing densities etc. for the partition functions (integrals / Hartree potential).

  Preparations completed.
  max(cpu_time)          :      0.152 s.
  Wall clock time (cpu1) :      0.183 s.
------------------------------------------------------------

------------------------------------------------------------
          Begin self-consistency loop: Initialization.

          Date     :  20140812, Time     :  112432.443
------------------------------------------------------------

  Initializing index lists of integration centers etc. from given atomic structure:
  | Number of centers in hartree potential         :         2
  | Number of centers in hartree multipole         :         2
  | Number of centers in electron density summation:         2
  | Number of centers in basis integrals           :         2
  | Number of centers in integrals                 :         2
  Partitioning the integration grid into batches with parallel hashing+maxmin method.
  | Number of batches:     1862
  | Maximal batch size:     150
  | Minimal batch size:      65
  | Average batch size:      77.553
  | Standard deviation of batch sizes:      21.518

  Integration load balanced across     4 MPI tasks.
  Work distribution over tasks is as follows:
  Task     0 has      36124 integration points.
  Task     1 has      36113 integration points.
  Task     2 has      36054 integration points.
  Task     3 has      36113 integration points.
  Initializing partition tables, free-atom densities, potentials, etc. across the integration grid (initialize_grid_storage).
  | Original list of interatomic distances with           2 x          2 entries is created.
  | Net number of integration points:   144404
  | of which are non-zero points    :   141820
  Obtaining max. number of non-zero basis functions in each batch (get_n_compute_maxes).
  | Maximal number of non-zero basis functions:       62 in task     0
  | Maximal number of non-zero basis functions:       62 in task     1
  | Maximal number of non-zero basis functions:       62 in task     2
  | Maximal number of non-zero basis functions:       62 in task     3
  Selecting the method for density update.
  Loop over occupied states selected for charge density update.
  Integrating Hamiltonian matrix: batch-based integration.
  Time summed over all CPUs for integration: real work        1.163 s, elapsed        1.191 s
  Integrating overlap matrix.
  Time summed over all CPUs for integration: real work        0.711 s, elapsed        0.721 s

  Updating Kohn-Sham eigenvalues, eigenvectors, occupation numbers, and Fermi level.
  Solving generalized eigenproblem
  Updating Kohn-Sham eigenvalues and eigenfunctions.
  Transforming overlap matrix and checking for singularities.
  Overlap matrix is nonsingular:
  | Lowest eigenvalue:  0.535099E+00
  Solving real generalised eigenvalue problem by standard LAPACK (fast)
  Determining occupation numbers for Kohn-Sham eigenstates.
  | Chemical potential (Fermi level) in eV                 : -.63557763E+01
  | Error in electron count due to remaining E_F inaccuracy: 0.00000000E+00
  | Maximum occupation number of highest empty state:  0.00E+00

  Writing Kohn-Sham eigenvalues.

  State    Occupation    Eigenvalue [Ha]    Eigenvalue [eV]
      1       2.00000          -0.236905           -6.44651
      2       0.00000          -0.230236           -6.26504
      3       0.00000           0.083123            2.26190
      4       0.00000           0.116634            3.17376
      5       0.00000           0.220221            5.99252
      6       0.00000           0.239182            6.50847
      7       0.00000           0.239182            6.50847
      8       0.00000           0.251245            6.83674
      9       0.00000           0.251245            6.83674
     10       0.00000           0.302996            8.24495
     11       0.00000           0.785927           21.38617
     12       0.00000           0.793061           21.58028
     13       0.00000           0.998281           27.16460
     14       0.00000           1.013458           27.57759
     15       0.00000           1.013458           27.57759
     16       0.00000           1.021797           27.80451
     17       0.00000           1.021797           27.80451
     18       0.00000           1.023568           27.85269
     19       0.00000           1.023568           27.85269
     20       0.00000           1.031714           28.07436
     21       0.00000           1.031714           28.07436
     22       0.00000           1.056136           28.73892
     23       0.00000           1.537885           41.84798
     24       0.00000           1.575053           42.85937
     25       0.00000           1.575053           42.85937
     26       0.00000           1.603485           43.63305
     27       0.00000           1.603485           43.63305
     28       0.00000           1.715490           46.68086
     29       0.00000           3.229168           87.87012
     30       0.00000           3.233634           87.99166
     31       0.00000           3.233634           87.99166
     32       0.00000           3.236542           88.07078
     33       0.00000           3.236542           88.07078
     34       0.00000           3.237190           88.08841
     35       0.00000           3.237190           88.08841
     36       0.00000           3.237282           88.09092
     37       0.00000           3.237282           88.09092
     38       0.00000           3.237899           88.10771
     39       0.00000           3.237899           88.10771
     40       0.00000           3.240934           88.19031
     41       0.00000           3.240934           88.19031
     42       0.00000           3.246311           88.33661
     43       0.00000           3.528936           96.02723
     44       0.00000           3.565607           97.02510
     45       0.00000           4.965218          135.11045
     46       0.00000           4.994986          135.92047
     47       0.00000           4.994986          135.92047
     48       0.00000           5.015279          136.47268
     49       0.00000           5.015279          136.47268
     50       0.00000           5.020040          136.60223
     51       0.00000           5.020040          136.60223
     52       0.00000           5.041632          137.18979
     53       0.00000           5.041632          137.18979
     54       0.00000           5.105780          138.93533
     55       0.00000           8.080392          219.87866
     56       0.00000           8.162093          222.10184
     57       0.00000           8.162093          222.10184
     58       0.00000           8.232116          224.00728
     59       0.00000           8.232116          224.00728
     60       0.00000           8.499175          231.27433
     61       0.00000          21.401853          582.37406
     62       0.00000          21.547223          586.32977

  Highest occupied state (VBM) at     -6.44651121 eV
  | Occupation number:      2.00000000

  Lowest unoccupied state (CBM) at    -6.26504145 eV
  | Occupation number:      0.00000000

  Overall HOMO-LUMO gap:      0.18146976 eV.
  Calculating total energy contributions from superposition of free atom densities.

  Total energy components:
  | Sum of eigenvalues            :          -0.47380987 Ha         -12.89302243 eV
  | XC energy correction          :          -0.46527627 Ha         -12.66081145 eV
  | XC potential correction       :           0.60648795 Ha          16.50337687 eV
  | Free-atom electrostatic energy:          -0.56550852 Ha         -15.38826972 eV
  | Hartree energy correction     :           0.00000000 Ha           0.00000000 eV
  | Entropy correction            :           0.00000000 Ha           0.00000000 eV
  | ---------------------------
  | Total energy                  :          -0.89810670 Ha         -24.43872672 eV
  | Total energy, T -> 0          :          -0.89810670 Ha         -24.43872672 eV  <-- do not rely on this value for anything but (periodic) metals
  | Electronic free energy        :          -0.89810670 Ha         -24.43872672 eV

  Derived energy quantities:
  | Kinetic energy                :           0.84329525 Ha          22.94723132 eV
  | Electrostatic energy          :          -1.27612568 Ha         -34.72514660 eV
  | Energy correction for multipole
  | error in Hartree potential    :           0.00000000 Ha           0.00000000 eV
  | Sum of eigenvalues per atom                           :          -6.44651121 eV
  | Total energy (T->0) per atom                          :         -12.21936336 eV  <-- do not rely on this value for anything but (periodic) metals
  | Electronic free energy per atom                       :         -12.21936336 eV
 
 --------------------------------------------
  Constructing auxiliary basis (full product) ...
 
  Product basis:
  | charge radius: extent of product basis function
  | field radius: extent of its Coulomb potential
  | Species   l  charge radius    field radius  multipol momen
  |    H      5     4.813203 A      4.813203 A  2.676041E-15 a.u.
  |    H      4     4.932336 A      4.932336 A  2.417679E-16 a.u.
  |    H      3     5.054418 A      5.054418 A  ************ a.u.
  |    H      4     5.054418 A      5.054418 A  ************ a.u.
  |    H      3     5.116587 A      5.116587 A  1.642688E-15 a.u.
  |    H      2     5.179521 A      5.179521 A  6.126280E-16 a.u.
  |    H      3     5.179521 A      5.179521 A  ************ a.u.
  |    H      2     5.243229 A      5.243229 A  1.485543E-16 a.u.
  |    H      2     5.243229 A      5.243229 A  1.683301E-16 a.u.
  |    H      2     5.243229 A      5.243229 A  ************ a.u.
  |    H      3     5.243229 A      5.243229 A  ************ a.u.
  |    H      1     5.307721 A      5.307721 A  2.416866E-16 a.u.
  |    H      1     5.307721 A      5.307721 A  1.291012E-16 a.u.
  |    H      2     5.307721 A      5.307721 A  7.871382E-16 a.u.
  |    H      0     5.373006 A      5.373006 A  9.519909E-17 a.u.
  |    H      1     5.373006 A      5.373006 A  2.334090E-16 a.u.
  |    H      1     5.373006 A      5.373006 A  ************ a.u.
  |    H      1     5.373006 A      5.373006 A  ************ a.u.
  |    H      1     5.373006 A      5.373006 A  1.823473E-16 a.u.
  |    H      0     5.373006 A      5.439094 A  ************ a.u.
  |    H      0     5.439094 A      5.439094 A  ************ a.u.
  |    H      0     5.439094 A      5.505995 A  9.305319E-17 a.u.
  |    H      0     5.439094 A      5.505995 A  4.082184E-17 a.u.
  |    H      0     5.439094 A      5.505995 A  3.169850E-16 a.u.
  |    H      0     5.439094 A      5.505995 A  2.711689E-16 a.u.
  |    H      5     4.872405 A  1.325110E+02 A           19.619780 a.u.
  |    H      4     5.054418 A  3.771796E+02 A           14.639479 a.u.
  |    H      3     5.243229 A  1.836978E+03 A           11.555842 a.u.
  |    H      2     5.307721 A  2.095310E+04 A            4.940052 a.u.
  |    H      1     5.373006 A  2.512347E+06 A            1.793689 a.u.
  |    H      0     5.439094 A  4.604132E+12 A            0.692368 a.u.

  | Shrink_full_auxil_basis : there are       31  radial auxiliary wave functions
                            accepted and      90 rejected.
  | Shrink_full_auxil_basis : there are totally     286 partial auxiliary wave functions.
 
  | Number of product basis functions per thread :    72
  | Minimal requirement for computer memories :           0.005 Gbs
 
  Basis pair condensation :      1953  -->       1953
 
 ----------------------------------------------------
  Integrating the 3-basis-function Coulomb matrix ...
  | i_atom:            1
  | i_atom:            2
  Integrating the Coulomb interaction matrix for auxiliary basis functions (by atoms)

  SBT integration errors (all should be 'small'):
  large logFT aliasing -> increase N/lnrange
  large SBT aliasing -> decrease lnk0 & increase lnk0+lnrange
  large SBT ringing -> decrease lnr0 & increase lnr0+lnrange
  |            El't  L: logFT-al.   small-k   large-k   small-r   large-r
  Atomic logSBT for 2-center Coulomb matrix    :  max(cpu_time)    wall_clock(cpu1)
  | Multiplication with kernel                 :        0.020 s           0.008 s
  | Main matrix multiplication                 :        0.068 s           0.042 s
  | Analytic angular integration               :        0.012 s           0.004 s
  | Kernel construction                        :        0.008 s           0.002 s
  | Overall 2-center overlap time              :        0.096 s           0.062 s

  Difference of Coulomb matrix to its transposed:  1.6653E-16
  Task     0: Eigenvalues of the Coulomb matrix range from    1.9513E+00 to    4.8591E-02.
  Task     0: Using      286   eigenvalues out of rank      286   Coulomb matrix (auxiliary basis).
 
  Multiplying V^-0.5 x ovlp_3fn (1d-scalapack)

  Initialize hartree_potential_storage
  Max. number of atoms included in rho_multipole:            2

  End scf initialization - timings             :  max(cpu_time)    wall_clock(cpu1)
  | Time for scf. initialization               :       24.702 s          24.728 s
  | Boundary condition initialization          :        0.000 s           0.000 s
  | Integration                                :        0.480 s           0.478 s
  | Solution of K.-S. eqns.                    :        0.004 s           0.005 s
  | Grid partitioning                          :        0.244 s           0.243 s
  | Preloading free-atom quantities on grid    :        0.072 s           0.069 s
  | Free-atom superposition energy             :        0.040 s           0.040 s
  | Total energy evaluation                    :        0.000 s           0.000 s
  | Product basis setup: Total time            :       23.789 s          23.815 s
  | Product basis: | 3-center integrations     :       23.309 s          23.342 s
  | Product basis: | 2-center integrations     :        0.256 s           0.253 s
  | Product basis: | 2-center linear algebra   :        0.088 s           0.087 s
  | Product basis: | 3-center x 2-center       :        0.024 s           0.025 s
------------------------------------------------------------

------------------------------------------------------------
          Begin self-consistency iteration #    1

  Date     :  20140812, Time     :  112457.171
------------------------------------------------------------
  Evaluating new KS density.
  Integration grid: deviation in total charge (<rho> - N_e) =   4.884981E-15
  Pulay mixing of updated and previous charge densities.

  Evaluating partitioned Hartree potential by multipole expansion.
  | Analytical far-field extrapolation by fixed multipoles:
  | Hartree multipole sum: apparent total charge =  -0.877691E-07
  Summing up the Hartree potential.
  Time summed over all CPUs for potential: real work        1.039 s, elapsed        1.042 s
  | RMS charge density error from multipole expansion :   0.153273E-04

  Integrating Hamiltonian matrix: batch-based integration.
  Time summed over all CPUs for integration: real work        1.038 s, elapsed        1.053 s
  Evaluating the exchange matrix ... 

  Updating Kohn-Sham eigenvalues, eigenvectors, occupation numbers, and Fermi level.
  Solving generalized eigenproblem
  Updating Kohn-Sham eigenvalues and eigenfunctions.
  Solving real generalised eigenvalue problem by standard LAPACK (fast)
  Determining occupation numbers for Kohn-Sham eigenstates.
  | Chemical potential (Fermi level) in eV                 : -.58997510E+01
  | Error in electron count due to remaining E_F inaccuracy: 0.00000000E+00
  | Maximum occupation number of highest empty state:  0.00E+00

  Writing Kohn-Sham eigenvalues.

  State    Occupation    Eigenvalue [Ha]    Eigenvalue [eV]
      1       2.00000          -0.287875           -7.83349
      2       0.00000          -0.145748           -3.96602
      3       0.00000           0.181967            4.95156
      4       0.00000           0.211085            5.74391
      5       0.00000           0.364744            9.92520
      6       0.00000           0.389876           10.60907
      7       0.00000           0.389876           10.60907
      8       0.00000           0.406680           11.06631
      9       0.00000           0.406680           11.06631
     10       0.00000           0.465428           12.66494
     11       0.00000           0.990514           26.95326
     12       0.00000           0.999239           27.19068
     13       0.00000           1.193291           32.47111
     14       0.00000           1.209232           32.90488
     15       0.00000           1.209232           32.90488
     16       0.00000           1.218153           33.14762
     17       0.00000           1.218153           33.14762
     18       0.00000           1.220199           33.20332
     19       0.00000           1.220199           33.20332
     20       0.00000           1.229483           33.45595
     21       0.00000           1.229483           33.45595
     22       0.00000           1.256499           34.19106
     23       0.00000           1.803944           49.08781
     24       0.00000           1.841203           50.10169
     25       0.00000           1.841203           50.10169
     26       0.00000           1.870487           50.89853
     27       0.00000           1.870487           50.89853
     28       0.00000           1.985603           54.03102
     29       0.00000           3.491796           95.01659
     30       0.00000           3.496082           95.13323
     31       0.00000           3.496082           95.13323
     32       0.00000           3.498989           95.21232
     33       0.00000           3.498989           95.21232
     34       0.00000           3.499476           95.22558
     35       0.00000           3.499476           95.22558
     36       0.00000           3.499576           95.22831
     37       0.00000           3.499576           95.22831
     38       0.00000           3.500427           95.25148
     39       0.00000           3.500427           95.25148
     40       0.00000           3.503747           95.34181
     41       0.00000           3.503747           95.34181
     42       0.00000           3.509525           95.49904
     43       0.00000           3.883332          105.67083
     44       0.00000           3.921095          106.69844
     45       0.00000           5.302996          144.30187
     46       0.00000           5.333067          145.12014
     47       0.00000           5.333067          145.12014
     48       0.00000           5.353565          145.67791
     49       0.00000           5.353565          145.67791
     50       0.00000           5.358438          145.81053
     51       0.00000           5.358438          145.81053
     52       0.00000           5.380719          146.41680
     53       0.00000           5.380719          146.41680
     54       0.00000           5.446412          148.20442
     55       0.00000           8.498974          231.26886
     56       0.00000           8.580714          233.49311
     57       0.00000           8.580714          233.49311
     58       0.00000           8.651418          235.41706
     59       0.00000           8.651418          235.41706
     60       0.00000           8.920975          242.75208
     61       0.00000          21.908863          596.17051
     62       0.00000          22.054661          600.13787

  Highest occupied state (VBM) at     -7.83348561 eV
  | Occupation number:      2.00000000

  Lowest unoccupied state (CBM) at    -3.96601631 eV
  | Occupation number:      0.00000000

  Overall HOMO-LUMO gap:      3.86746930 eV.

  Total energy components:
  | Sum of eigenvalues            :          -0.57575061 Ha         -15.66697121 eV
  | XC energy correction          :           0.34405559 Ha           9.36222891 eV
  | XC potential correction       :           0.00000000 Ha           0.00000000 eV
  | Free-atom electrostatic energy:          -0.56550852 Ha         -15.38826972 eV
  | Hartree energy correction     :           0.00588455 Ha           0.16012662 eV
  | Entropy correction            :           0.00000000 Ha           0.00000000 eV
  | ---------------------------
  | Total energy                  :          -0.79131899 Ha         -21.53288540 eV
  | Total energy, T -> 0          :          -0.79131899 Ha         -21.53288540 eV  <-- do not rely on this value for anything but (periodic) metals
  | Electronic free energy        :          -0.79131899 Ha         -21.53288540 eV

  Derived energy quantities:
  | Kinetic energy                :           0.81767554 Ha          22.25008363 eV
  | Electrostatic energy          :          -1.26493895 Ha         -34.42074012 eV
  | Energy correction for multipole
  | error in Hartree potential    :          -0.00000097 Ha          -0.00002653 eV
  | Sum of eigenvalues per atom                           :          -7.83348561 eV
  | Total energy (T->0) per atom                          :         -10.76644270 eV  <-- do not rely on this value for anything but (periodic) metals
  | Electronic free energy per atom                       :         -10.76644270 eV

  Self-consistency convergence accuracy:
  | Change of charge density      : 0.7472E-02
  | Change of sum of eigenvalues  : -.2774E+01 eV
  | Change of total energy        : 0.2906E+01 eV

  End self-consistency iteration #     1       :  max(cpu_time)    wall_clock(cpu1)
  | Time for this iteration                    :        0.748 s           0.747 s
  | Charge density update                      :        0.140 s           0.138 s
  | Density mixing                             :        0.004 s           0.002 s
  | Hartree multipole update                   :        0.068 s           0.067 s
  | Hartree multipole summation                :        0.264 s           0.262 s
  | Integration                                :        0.264 s           0.263 s
  | Fock matrix evaluation                     :        0.012 s           0.011 s
  | Solution of K.-S. eqns.                    :        0.004 s           0.002 s
  | Total energy evaluation                    :        0.000 s           0.001 s
------------------------------------------------------------

------------------------------------------------------------
          Begin self-consistency iteration #    2

  Date     :  20140812, Time     :  112457.918
------------------------------------------------------------
  Evaluating new KS density.
  Integration grid: deviation in total charge (<rho> - N_e) =   4.884981E-15
  Pulay mixing of updated and previous charge densities.

  Evaluating partitioned Hartree potential by multipole expansion.
  | Analytical far-field extrapolation by fixed multipoles:
  | Hartree multipole sum: apparent total charge =  -0.100027E-06
  Summing up the Hartree potential.
  Time summed over all CPUs for potential: real work        1.024 s, elapsed        1.032 s
  | RMS charge density error from multipole expansion :   0.102868E-04

  Integrating Hamiltonian matrix: batch-based integration.
  Time summed over all CPUs for integration: real work        1.055 s, elapsed        1.077 s
  Evaluating the exchange matrix ... 

  Updating Kohn-Sham eigenvalues, eigenvectors, occupation numbers, and Fermi level.
  Solving generalized eigenproblem
  Updating Kohn-Sham eigenvalues and eigenfunctions.
  Solving real generalised eigenvalue problem by standard LAPACK (fast)
  Determining occupation numbers for Kohn-Sham eigenstates.
  | Chemical potential (Fermi level) in eV                 : -.58507316E+01
  | Error in electron count due to remaining E_F inaccuracy: 0.00000000E+00
  | Maximum occupation number of highest empty state:  0.00E+00

  Highest occupied state (VBM) at     -7.78231793 eV
  | Occupation number:      2.00000000

  Lowest unoccupied state (CBM) at    -3.91914527 eV
  | Occupation number:      0.00000000

  Overall HOMO-LUMO gap:      3.86317265 eV.

  Total energy components:
  | Sum of eigenvalues            :          -0.57198985 Ha         -15.56463585 eV
  | XC energy correction          :           0.33366960 Ha           9.07961181 eV
  | XC potential correction       :           0.00000000 Ha           0.00000000 eV
  | Free-atom electrostatic energy:          -0.56550852 Ha         -15.38826972 eV
  | Hartree energy correction     :          -0.00134866 Ha          -0.03669897 eV
  | Entropy correction            :           0.00000000 Ha           0.00000000 eV
  | ---------------------------
  | Total energy                  :          -0.80517743 Ha         -21.90999273 eV
  | Total energy, T -> 0          :          -0.80517743 Ha         -21.90999273 eV  <-- do not rely on this value for anything but (periodic) metals
  | Electronic free energy        :          -0.80517743 Ha         -21.90999273 eV

  Derived energy quantities:
  | Kinetic energy                :           0.80767986 Ha          21.97808716 eV
  | Electrostatic energy          :          -1.27918769 Ha         -34.80846808 eV
  | Energy correction for multipole
  | error in Hartree potential    :          -0.00000051 Ha          -0.00001383 eV
  | Sum of eigenvalues per atom                           :          -7.78231793 eV
  | Total energy (T->0) per atom                          :         -10.95499637 eV  <-- do not rely on this value for anything but (periodic) metals
  | Electronic free energy per atom                       :         -10.95499637 eV

  Self-consistency convergence accuracy:
  | Change of charge density      : 0.3201E-01
  | Change of sum of eigenvalues  : 0.1023E+00 eV
  | Change of total energy        : -.3771E+00 eV

  End self-consistency iteration #     2       :  max(cpu_time)    wall_clock(cpu1)
  | Time for this iteration                    :        0.752 s           0.751 s
  | Charge density update                      :        0.136 s           0.135 s
  | Density mixing                             :        0.004 s           0.005 s
  | Hartree multipole update                   :        0.072 s           0.068 s
  | Hartree multipole summation                :        0.260 s           0.260 s
  | Integration                                :        0.272 s           0.269 s
  | Fock matrix evaluation                     :        0.012 s           0.012 s
  | Solution of K.-S. eqns.                    :        0.004 s           0.001 s
  | Total energy evaluation                    :        0.000 s           0.000 s
------------------------------------------------------------

------------------------------------------------------------
          Begin self-consistency iteration #    3

  Date     :  20140812, Time     :  112458.669
------------------------------------------------------------
  Evaluating new KS density.
  Integration grid: deviation in total charge (<rho> - N_e) =   5.773160E-15
  Pulay mixing of updated and previous charge densities.

  Evaluating partitioned Hartree potential by multipole expansion.
  | Analytical far-field extrapolation by fixed multipoles:
  | Hartree multipole sum: apparent total charge =  -0.872370E-07
  Summing up the Hartree potential.
  Time summed over all CPUs for potential: real work        1.026 s, elapsed        1.038 s
  | RMS charge density error from multipole expansion :   0.680819E-04

  Integrating Hamiltonian matrix: batch-based integration.
  Time summed over all CPUs for integration: real work        1.048 s, elapsed        1.077 s
  Evaluating the exchange matrix ... 

  Updating Kohn-Sham eigenvalues, eigenvectors, occupation numbers, and Fermi level.
  Solving generalized eigenproblem
  Updating Kohn-Sham eigenvalues and eigenfunctions.
  Solving real generalised eigenvalue problem by standard LAPACK (fast)
  Determining occupation numbers for Kohn-Sham eigenstates.
  | Chemical potential (Fermi level) in eV                 : -.62865479E+01
  | Error in electron count due to remaining E_F inaccuracy: 0.00000000E+00
  | Maximum occupation number of highest empty state:  0.00E+00

  Highest occupied state (VBM) at     -8.23887022 eV
  | Occupation number:      2.00000000

  Lowest unoccupied state (CBM) at    -4.33422567 eV
  | Occupation number:      0.00000000

  Overall HOMO-LUMO gap:      3.90464455 eV.

  Total energy components:
  | Sum of eigenvalues            :          -0.60554583 Ha         -16.47774044 eV
  | XC energy correction          :           0.32199791 Ha           8.76200902 eV
  | XC potential correction       :           0.00000000 Ha           0.00000000 eV
  | Free-atom electrostatic energy:          -0.56550852 Ha         -15.38826972 eV
  | Hartree energy correction     :           0.05908118 Ha           1.60768064 eV
  | Entropy correction            :           0.00000000 Ha           0.00000000 eV
  | ---------------------------
  | Total energy                  :          -0.78997526 Ha         -21.49632050 eV
  | Total energy, T -> 0          :          -0.78997526 Ha         -21.49632050 eV  <-- do not rely on this value for anything but (periodic) metals
  | Electronic free energy        :          -0.78997526 Ha         -21.49632050 eV

  Derived energy quantities:
  | Kinetic energy                :           0.68210182 Ha          18.56093493 eV
  | Electrostatic energy          :          -1.15007917 Ha         -31.29524640 eV
  | Energy correction for multipole
  | error in Hartree potential    :          -0.00000524 Ha          -0.00014245 eV
  | Sum of eigenvalues per atom                           :          -8.23887022 eV
  | Total energy (T->0) per atom                          :         -10.74816025 eV  <-- do not rely on this value for anything but (periodic) metals
  | Electronic free energy per atom                       :         -10.74816025 eV

  Self-consistency convergence accuracy:
  | Change of charge density      : 0.3635E-01
  | Change of sum of eigenvalues  : -.9131E+00 eV
  | Change of total energy        : 0.4137E+00 eV

  End self-consistency iteration #     3       :  max(cpu_time)    wall_clock(cpu1)
  | Time for this iteration                    :        0.756 s           0.758 s
  | Charge density update                      :        0.136 s           0.137 s
  | Density mixing                             :        0.008 s           0.008 s
  | Hartree multipole update                   :        0.068 s           0.066 s
  | Hartree multipole summation                :        0.260 s           0.261 s
  | Integration                                :        0.272 s           0.270 s
  | Fock matrix evaluation                     :        0.016 s           0.014 s
  | Solution of K.-S. eqns.                    :        0.004 s           0.001 s
  | Total energy evaluation                    :        0.000 s           0.001 s
------------------------------------------------------------

------------------------------------------------------------
          Begin self-consistency iteration #    4

  Date     :  20140812, Time     :  112459.427
------------------------------------------------------------
  Evaluating new KS density.
  Integration grid: deviation in total charge (<rho> - N_e) =   0.000000E+00
  Pulay mixing of updated and previous charge densities.

  Evaluating partitioned Hartree potential by multipole expansion.
  | Analytical far-field extrapolation by fixed multipoles:
  | Hartree multipole sum: apparent total charge =  -0.831881E-07
  Summing up the Hartree potential.
  Time summed over all CPUs for potential: real work        1.049 s, elapsed        1.066 s
  | RMS charge density error from multipole expansion :   0.696928E-04

  Integrating Hamiltonian matrix: batch-based integration.
  Time summed over all CPUs for integration: real work        1.056 s, elapsed        1.083 s
  Evaluating the exchange matrix ... 

  Updating Kohn-Sham eigenvalues, eigenvectors, occupation numbers, and Fermi level.
  Solving generalized eigenproblem
  Updating Kohn-Sham eigenvalues and eigenfunctions.
  Solving real generalised eigenvalue problem by standard LAPACK (fast)
  Determining occupation numbers for Kohn-Sham eigenstates.
  | Chemical potential (Fermi level) in eV                 : -.62834801E+01
  | Error in electron count due to remaining E_F inaccuracy: 0.00000000E+00
  | Maximum occupation number of highest empty state:  0.00E+00

  Highest occupied state (VBM) at     -8.23548747 eV
  | Occupation number:      2.00000000

  Lowest unoccupied state (CBM) at    -4.33147267 eV
  | Occupation number:      0.00000000

  Overall HOMO-LUMO gap:      3.90401479 eV.

  Total energy components:
  | Sum of eigenvalues            :          -0.60529720 Ha         -16.47097493 eV
  | XC energy correction          :           0.31956775 Ha           8.69588083 eV
  | XC potential correction       :           0.00000000 Ha           0.00000000 eV
  | Free-atom electrostatic energy:          -0.56550852 Ha         -15.38826972 eV
  | Hartree energy correction     :           0.05942552 Ha           1.61705074 eV
  | Entropy correction            :           0.00000000 Ha           0.00000000 eV
  | ---------------------------
  | Total energy                  :          -0.79181245 Ha         -21.54631308 eV
  | Total energy, T -> 0          :          -0.79181245 Ha         -21.54631308 eV  <-- do not rely on this value for anything but (periodic) metals
  | Electronic free energy        :          -0.79181245 Ha         -21.54631308 eV

  Derived energy quantities:
  | Kinetic energy                :           0.67963323 Ha          18.49376109 eV
  | Electrostatic energy          :          -1.15187793 Ha         -31.34419334 eV
  | Energy correction for multipole
  | error in Hartree potential    :          -0.00000554 Ha          -0.00015086 eV
  | Sum of eigenvalues per atom                           :          -8.23548747 eV
  | Total energy (T->0) per atom                          :         -10.77315654 eV  <-- do not rely on this value for anything but (periodic) metals
  | Electronic free energy per atom                       :         -10.77315654 eV

  Self-consistency convergence accuracy:
  | Change of charge density      : 0.1625E-02
  | Change of sum of eigenvalues  : 0.6766E-02 eV
  | Change of total energy        : -.4999E-01 eV

  End self-consistency iteration #     4       :  max(cpu_time)    wall_clock(cpu1)
  | Time for this iteration                    :        0.776 s           0.774 s
  | Charge density update                      :        0.140 s           0.140 s
  | Density mixing                             :        0.012 s           0.012 s
  | Hartree multipole update                   :        0.072 s           0.070 s
  | Hartree multipole summation                :        0.268 s           0.267 s
  | Integration                                :        0.272 s           0.271 s
  | Fock matrix evaluation                     :        0.012 s           0.012 s
  | Solution of K.-S. eqns.                    :        0.000 s           0.001 s
  | Total energy evaluation                    :        0.004 s           0.001 s
------------------------------------------------------------

------------------------------------------------------------
          Begin self-consistency iteration #    5

  Date     :  20140812, Time     :  112500.201
------------------------------------------------------------
  Evaluating new KS density.
  Integration grid: deviation in total charge (<rho> - N_e) =   7.105427E-15
  Pulay mixing of updated and previous charge densities.

  Evaluating partitioned Hartree potential by multipole expansion.
  | Analytical far-field extrapolation by fixed multipoles:
  | Hartree multipole sum: apparent total charge =  -0.824850E-07
  Summing up the Hartree potential.
  Time summed over all CPUs for potential: real work        1.051 s, elapsed        1.063 s
  | RMS charge density error from multipole expansion :   0.689060E-04

  Integrating Hamiltonian matrix: batch-based integration.
  Time summed over all CPUs for integration: real work        1.046 s, elapsed        1.062 s
  Evaluating the exchange matrix ... 

  Updating Kohn-Sham eigenvalues, eigenvectors, occupation numbers, and Fermi level.
  Solving generalized eigenproblem
  Updating Kohn-Sham eigenvalues and eigenfunctions.
  Solving real generalised eigenvalue problem by standard LAPACK (fast)
  Determining occupation numbers for Kohn-Sham eigenstates.
  | Chemical potential (Fermi level) in eV                 : -.62764039E+01
  | Error in electron count due to remaining E_F inaccuracy: 0.00000000E+00
  | Maximum occupation number of highest empty state:  0.00E+00

  Highest occupied state (VBM) at     -8.22816378 eV
  | Occupation number:      2.00000000

  Lowest unoccupied state (CBM) at    -4.32464392 eV
  | Occupation number:      0.00000000

  Overall HOMO-LUMO gap:      3.90351986 eV.

  Total energy components:
  | Sum of eigenvalues            :          -0.60475892 Ha         -16.45632757 eV
  | XC energy correction          :           0.31964719 Ha           8.69804264 eV
  | XC potential correction       :           0.00000000 Ha           0.00000000 eV
  | Free-atom electrostatic energy:          -0.56550852 Ha         -15.38826972 eV
  | Hartree energy correction     :           0.05853966 Ha           1.59294522 eV
  | Entropy correction            :           0.00000000 Ha           0.00000000 eV
  | ---------------------------
  | Total energy                  :          -0.79208059 Ha         -21.55360943 eV
  | Total energy, T -> 0          :          -0.79208059 Ha         -21.55360943 eV  <-- do not rely on this value for anything but (periodic) metals
  | Electronic free energy        :          -0.79208059 Ha         -21.55360943 eV

  Derived energy quantities:
  | Kinetic energy                :           0.68177806 Ha          18.55212506 eV
  | Electrostatic energy          :          -1.15421146 Ha         -31.40769185 eV
  | Energy correction for multipole
  | error in Hartree potential    :          -0.00000550 Ha          -0.00014971 eV
  | Sum of eigenvalues per atom                           :          -8.22816378 eV
  | Total energy (T->0) per atom                          :         -10.77680471 eV  <-- do not rely on this value for anything but (periodic) metals
  | Electronic free energy per atom                       :         -10.77680471 eV

  Self-consistency convergence accuracy:
  | Change of charge density      : 0.7967E-03
  | Change of sum of eigenvalues  : 0.1465E-01 eV
  | Change of total energy        : -.7296E-02 eV

  End self-consistency iteration #     5       :  max(cpu_time)    wall_clock(cpu1)
  | Time for this iteration                    :        0.764 s           0.763 s
  | Charge density update                      :        0.136 s           0.134 s
  | Density mixing                             :        0.016 s           0.016 s
  | Hartree multipole update                   :        0.068 s           0.066 s
  | Hartree multipole summation                :        0.268 s           0.267 s
  | Integration                                :        0.268 s           0.266 s
  | Fock matrix evaluation                     :        0.012 s           0.012 s
  | Solution of K.-S. eqns.                    :        0.004 s           0.002 s
  | Total energy evaluation                    :        0.000 s           0.000 s
------------------------------------------------------------

------------------------------------------------------------
          Begin self-consistency iteration #    6

  Date     :  20140812, Time     :  112500.965
------------------------------------------------------------
  Evaluating new KS density.
  Integration grid: deviation in total charge (<rho> - N_e) =  -1.776357E-15
  Pulay mixing of updated and previous charge densities.

  Evaluating partitioned Hartree potential by multipole expansion.
  | Analytical far-field extrapolation by fixed multipoles:
  | Hartree multipole sum: apparent total charge =  -0.824570E-07
  Summing up the Hartree potential.
  Time summed over all CPUs for potential: real work        1.029 s, elapsed        1.040 s
  | RMS charge density error from multipole expansion :   0.686762E-04

  Integrating Hamiltonian matrix: batch-based integration.
  Time summed over all CPUs for integration: real work        1.067 s, elapsed        1.077 s
  Evaluating the exchange matrix ... 

  Updating Kohn-Sham eigenvalues, eigenvectors, occupation numbers, and Fermi level.
  Solving generalized eigenproblem
  Updating Kohn-Sham eigenvalues and eigenfunctions.
  Solving real generalised eigenvalue problem by standard LAPACK (fast)
  Determining occupation numbers for Kohn-Sham eigenstates.
  | Chemical potential (Fermi level) in eV                 : -.62749410E+01
  | Error in electron count due to remaining E_F inaccuracy: 0.00000000E+00
  | Maximum occupation number of highest empty state:  0.00E+00

  Highest occupied state (VBM) at     -8.22666076 eV
  | Occupation number:      2.00000000

  Lowest unoccupied state (CBM) at    -4.32322129 eV
  | Occupation number:      0.00000000

  Overall HOMO-LUMO gap:      3.90343947 eV.

  Total energy components:
  | Sum of eigenvalues            :          -0.60464845 Ha         -16.45332152 eV
  | XC energy correction          :           0.31972427 Ha           8.70014000 eV
  | XC potential correction       :           0.00000000 Ha           0.00000000 eV
  | Free-atom electrostatic energy:          -0.56550852 Ha         -15.38826972 eV
  | Hartree energy correction     :           0.05833213 Ha           1.58729797 eV
  | Entropy correction            :           0.00000000 Ha           0.00000000 eV
  | ---------------------------
  | Total energy                  :          -0.79210057 Ha         -21.55415327 eV
  | Total energy, T -> 0          :          -0.79210057 Ha         -21.55415327 eV  <-- do not rely on this value for anything but (periodic) metals
  | Electronic free energy        :          -0.79210057 Ha         -21.55415327 eV

  Derived energy quantities:
  | Kinetic energy                :           0.68228851 Ha          18.56601499 eV
  | Electrostatic energy          :          -1.15466481 Ha         -31.42002825 eV
  | Energy correction for multipole
  | error in Hartree potential    :          -0.00000548 Ha          -0.00014917 eV
  | Sum of eigenvalues per atom                           :          -8.22666076 eV
  | Total energy (T->0) per atom                          :         -10.77707663 eV  <-- do not rely on this value for anything but (periodic) metals
  | Electronic free energy per atom                       :         -10.77707663 eV

  Self-consistency convergence accuracy:
  | Change of charge density      : 0.1192E-03
  | Change of sum of eigenvalues  : 0.3006E-02 eV
  | Change of total energy        : -.5438E-03 eV

  End self-consistency iteration #     6       :  max(cpu_time)    wall_clock(cpu1)
  | Time for this iteration                    :        0.768 s           0.766 s
  | Charge density update                      :        0.136 s           0.136 s
  | Density mixing                             :        0.020 s           0.020 s
  | Hartree multipole update                   :        0.068 s           0.065 s
  | Hartree multipole summation                :        0.260 s           0.261 s
  | Integration                                :        0.272 s           0.269 s
  | Fock matrix evaluation                     :        0.016 s           0.013 s
  | Solution of K.-S. eqns.                    :        0.000 s           0.001 s
  | Total energy evaluation                    :        0.004 s           0.001 s
------------------------------------------------------------

------------------------------------------------------------
          Begin self-consistency iteration #    7

  Date     :  20140812, Time     :  112501.731
------------------------------------------------------------
  Evaluating new KS density.
  Integration grid: deviation in total charge (<rho> - N_e) =   7.105427E-15
  Pulay mixing of updated and previous charge densities.

  Evaluating partitioned Hartree potential by multipole expansion.
  | Analytical far-field extrapolation by fixed multipoles:
  | Hartree multipole sum: apparent total charge =  -0.824536E-07
  Summing up the Hartree potential.
  Time summed over all CPUs for potential: real work        1.041 s, elapsed        1.047 s
  | RMS charge density error from multipole expansion :   0.686894E-04

  Integrating Hamiltonian matrix: batch-based integration.
  Time summed over all CPUs for integration: real work        1.043 s, elapsed        1.057 s
  Evaluating the exchange matrix ... 

  Updating Kohn-Sham eigenvalues, eigenvectors, occupation numbers, and Fermi level.
  Solving generalized eigenproblem
  Updating Kohn-Sham eigenvalues and eigenfunctions.
  Solving real generalised eigenvalue problem by standard LAPACK (fast)
  Determining occupation numbers for Kohn-Sham eigenstates.
  | Chemical potential (Fermi level) in eV                 : -.62750173E+01
  | Error in electron count due to remaining E_F inaccuracy: 0.00000000E+00
  | Maximum occupation number of highest empty state:  0.00E+00

  Highest occupied state (VBM) at     -8.22674487 eV
  | Occupation number:      2.00000000

  Lowest unoccupied state (CBM) at    -4.32328974 eV
  | Occupation number:      0.00000000

  Overall HOMO-LUMO gap:      3.90345512 eV.

  Total energy components:
  | Sum of eigenvalues            :          -0.60465463 Ha         -16.45348974 eV
  | XC energy correction          :           0.31973137 Ha           8.70033321 eV
  | XC potential correction       :           0.00000000 Ha           0.00000000 eV
  | Free-atom electrostatic energy:          -0.56550852 Ha         -15.38826972 eV
  | Hartree energy correction     :           0.05834284 Ha           1.58758933 eV
  | Entropy correction            :           0.00000000 Ha           0.00000000 eV
  | ---------------------------
  | Total energy                  :          -0.79208895 Ha         -21.55383692 eV
  | Total energy, T -> 0          :          -0.79208895 Ha         -21.55383692 eV  <-- do not rely on this value for anything but (periodic) metals
  | Electronic free energy        :          -0.79208895 Ha         -21.55383692 eV

  Derived energy quantities:
  | Kinetic energy                :           0.68228438 Ha          18.56590253 eV
  | Electrostatic energy          :          -1.15464196 Ha         -31.41940625 eV
  | Energy correction for multipole
  | error in Hartree potential    :          -0.00000548 Ha          -0.00014920 eV
  | Sum of eigenvalues per atom                           :          -8.22674487 eV
  | Total energy (T->0) per atom                          :         -10.77691846 eV  <-- do not rely on this value for anything but (periodic) metals
  | Electronic free energy per atom                       :         -10.77691846 eV

  Self-consistency convergence accuracy:
  | Change of charge density      : 0.5454E-05
  | Change of sum of eigenvalues  : -.1682E-03 eV
  | Change of total energy        : 0.3163E-03 eV

  End self-consistency iteration #     7       :  max(cpu_time)    wall_clock(cpu1)
  | Time for this iteration                    :        0.764 s           0.763 s
  | Charge density update                      :        0.136 s           0.134 s
  | Density mixing                             :        0.024 s           0.023 s
  | Hartree multipole update                   :        0.068 s           0.064 s
  | Hartree multipole summation                :        0.264 s           0.263 s
  | Integration                                :        0.264 s           0.265 s
  | Fock matrix evaluation                     :        0.012 s           0.012 s
  | Solution of K.-S. eqns.                    :        0.004 s           0.001 s
  | Total energy evaluation                    :        0.000 s           0.000 s
------------------------------------------------------------

------------------------------------------------------------
          Begin self-consistency iteration #    8

  Date     :  20140812, Time     :  112502.495
------------------------------------------------------------
  Evaluating new KS density.
  Integration grid: deviation in total charge (<rho> - N_e) =   8.881784E-16
  Pulay mixing of updated and previous charge densities.

  Evaluating partitioned Hartree potential by multipole expansion.
  | Analytical far-field extrapolation by fixed multipoles:
  | Hartree multipole sum: apparent total charge =  -0.824527E-07
  Summing up the Hartree potential.
  Time summed over all CPUs for potential: real work        1.039 s, elapsed        1.051 s
  | RMS charge density error from multipole expansion :   0.686888E-04

  Integrating Hamiltonian matrix: batch-based integration.
  Time summed over all CPUs for integration: real work        1.052 s, elapsed        1.059 s
  Evaluating the exchange matrix ... 

  Updating Kohn-Sham eigenvalues, eigenvectors, occupation numbers, and Fermi level.
  Solving generalized eigenproblem
  Updating Kohn-Sham eigenvalues and eigenfunctions.
  Solving real generalised eigenvalue problem by standard LAPACK (fast)
  Determining occupation numbers for Kohn-Sham eigenstates.
  | Chemical potential (Fermi level) in eV                 : -.62750118E+01
  | Error in electron count due to remaining E_F inaccuracy: 0.00000000E+00
  | Maximum occupation number of highest empty state:  0.00E+00

  Highest occupied state (VBM) at     -8.22673887 eV
  | Occupation number:      2.00000000

  Lowest unoccupied state (CBM) at    -4.32328472 eV
  | Occupation number:      0.00000000

  Overall HOMO-LUMO gap:      3.90345415 eV.

  Total energy components:
  | Sum of eigenvalues            :          -0.60465419 Ha         -16.45347774 eV
  | XC energy correction          :           0.31973074 Ha           8.70031597 eV
  | XC potential correction       :           0.00000000 Ha           0.00000000 eV
  | Free-atom electrostatic energy:          -0.56550852 Ha         -15.38826972 eV
  | Hartree energy correction     :           0.05834235 Ha           1.58757617 eV
  | Entropy correction            :           0.00000000 Ha           0.00000000 eV
  | ---------------------------
  | Total energy                  :          -0.79208962 Ha         -21.55385532 eV
  | Total energy, T -> 0          :          -0.79208962 Ha         -21.55385532 eV  <-- do not rely on this value for anything but (periodic) metals
  | Electronic free energy        :          -0.79208962 Ha         -21.55385532 eV

  Derived energy quantities:
  | Kinetic energy                :           0.68228421 Ha          18.56589786 eV
  | Electrostatic energy          :          -1.15464309 Ha         -31.41943720 eV
  | Energy correction for multipole
  | error in Hartree potential    :          -0.00000548 Ha          -0.00014920 eV
  | Sum of eigenvalues per atom                           :          -8.22673887 eV
  | Total energy (T->0) per atom                          :         -10.77692766 eV  <-- do not rely on this value for anything but (periodic) metals
  | Electronic free energy per atom                       :         -10.77692766 eV

  Self-consistency convergence accuracy:
  | Change of charge density      : 0.3863E-06
  | Change of sum of eigenvalues  : 0.1200E-04 eV
  | Change of total energy        : -.1840E-04 eV

  End self-consistency iteration #     8       :  max(cpu_time)    wall_clock(cpu1)
  | Time for this iteration                    :        0.776 s           0.776 s
  | Charge density update                      :        0.140 s           0.138 s
  | Density mixing                             :        0.028 s           0.028 s
  | Hartree multipole update                   :        0.068 s           0.066 s
  | Hartree multipole summation                :        0.264 s           0.264 s
  | Integration                                :        0.264 s           0.265 s
  | Fock matrix evaluation                     :        0.016 s           0.013 s
  | Solution of K.-S. eqns.                    :        0.004 s           0.001 s
  | Total energy evaluation                    :        0.000 s           0.001 s
------------------------------------------------------------

------------------------------------------------------------
          Begin self-consistency iteration #    9

  Date     :  20140812, Time     :  112503.271
------------------------------------------------------------
  Evaluating new KS density.
  Integration grid: deviation in total charge (<rho> - N_e) =   8.881784E-15
  Pulay mixing of updated and previous charge densities.

  Evaluating partitioned Hartree potential by multipole expansion.
  | Analytical far-field extrapolation by fixed multipoles:
  | Hartree multipole sum: apparent total charge =  -0.824527E-07
  Summing up the Hartree potential.
  Time summed over all CPUs for potential: real work        1.034 s, elapsed        1.040 s
  | RMS charge density error from multipole expansion :   0.686887E-04

  Integrating Hamiltonian matrix: batch-based integration.
  Time summed over all CPUs for integration: real work        1.044 s, elapsed        1.062 s
  Evaluating the exchange matrix ... 

  Updating Kohn-Sham eigenvalues, eigenvectors, occupation numbers, and Fermi level.
  Solving generalized eigenproblem
  Updating Kohn-Sham eigenvalues and eigenfunctions.
  Solving real generalised eigenvalue problem by standard LAPACK (fast)
  Determining occupation numbers for Kohn-Sham eigenstates.
  | Chemical potential (Fermi level) in eV                 : -.62750113E+01
  | Error in electron count due to remaining E_F inaccuracy: 0.00000000E+00
  | Maximum occupation number of highest empty state:  0.00E+00

  Highest occupied state (VBM) at     -8.22673840 eV
  | Occupation number:      2.00000000

  Lowest unoccupied state (CBM) at    -4.32328418 eV
  | Occupation number:      0.00000000

  Overall HOMO-LUMO gap:      3.90345422 eV.

  Total energy components:
  | Sum of eigenvalues            :          -0.60465416 Ha         -16.45347681 eV
  | XC energy correction          :           0.31973078 Ha           8.70031723 eV
  | XC potential correction       :           0.00000000 Ha           0.00000000 eV
  | Free-atom electrostatic energy:          -0.56550852 Ha         -15.38826972 eV
  | Hartree energy correction     :           0.05834226 Ha           1.58757377 eV
  | Entropy correction            :           0.00000000 Ha           0.00000000 eV
  | ---------------------------
  | Total energy                  :          -0.79208963 Ha         -21.55385553 eV
  | Total energy, T -> 0          :          -0.79208963 Ha         -21.55385553 eV  <-- do not rely on this value for anything but (periodic) metals
  | Electronic free energy        :          -0.79208963 Ha         -21.55385553 eV

  Derived energy quantities:
  | Kinetic energy                :           0.68228442 Ha          18.56590377 eV
  | Electrostatic energy          :          -1.15464327 Ha         -31.41944207 eV
  | Energy correction for multipole
  | error in Hartree potential    :          -0.00000548 Ha          -0.00014920 eV
  | Sum of eigenvalues per atom                           :          -8.22673840 eV
  | Total energy (T->0) per atom                          :         -10.77692776 eV  <-- do not rely on this value for anything but (periodic) metals
  | Electronic free energy per atom                       :         -10.77692776 eV

  Self-consistency convergence accuracy:
  | Change of charge density      : 0.5600E-07
  | Change of sum of eigenvalues  : 0.9337E-06 eV
  | Change of total energy        : -.2107E-06 eV

  Writing Kohn-Sham eigenvalues.

  State    Occupation    Eigenvalue [Ha]    Eigenvalue [eV]
      1       2.00000          -0.302327           -8.22674
      2       0.00000          -0.158878           -4.32328
      3       0.00000           0.180185            4.90308
      4       0.00000           0.206298            5.61366
      5       0.00000           0.353887            9.62975
      6       0.00000           0.378733           10.30585
      7       0.00000           0.378733           10.30585
      8       0.00000           0.395570           10.76400
      9       0.00000           0.395570           10.76400
     10       0.00000           0.455297           12.38927
     11       0.00000           0.974181           26.50882
     12       0.00000           0.982232           26.72790
     13       0.00000           1.180052           32.11084
     14       0.00000           1.195967           32.54391
     15       0.00000           1.195967           32.54391
     16       0.00000           1.204329           32.77146
     17       0.00000           1.204329           32.77146
     18       0.00000           1.206375           32.82715
     19       0.00000           1.206375           32.82715
     20       0.00000           1.216344           33.09841
     21       0.00000           1.216344           33.09841
     22       0.00000           1.243714           33.84318
     23       0.00000           1.778718           48.40138
     24       0.00000           1.815132           49.39226
     25       0.00000           1.815132           49.39226
     26       0.00000           1.844156           50.18205
     27       0.00000           1.844156           50.18205
     28       0.00000           1.959384           53.31754
     29       0.00000           3.469524           94.41055
     30       0.00000           3.473800           94.52691
     31       0.00000           3.473800           94.52691
     32       0.00000           3.476452           94.59906
     33       0.00000           3.476452           94.59906
     34       0.00000           3.476507           94.60057
     35       0.00000           3.476507           94.60057
     36       0.00000           3.476607           94.60330
     37       0.00000           3.476607           94.60330
     38       0.00000           3.477898           94.63842
     39       0.00000           3.477898           94.63842
     40       0.00000           3.481530           94.73726
     41       0.00000           3.481530           94.73726
     42       0.00000           3.487466           94.89877
     43       0.00000           3.844421          104.61201
     44       0.00000           3.881940          105.63296
     45       0.00000           5.266673          143.31345
     46       0.00000           5.296634          144.12874
     47       0.00000           5.296634          144.12874
     48       0.00000           5.316746          144.67602
     49       0.00000           5.316746          144.67602
     50       0.00000           5.321604          144.80822
     51       0.00000           5.321604          144.80822
     52       0.00000           5.344231          145.42391
     53       0.00000           5.344231          145.42391
     54       0.00000           5.410100          147.21631
     55       0.00000           8.449735          229.92899
     56       0.00000           8.531037          232.14133
     57       0.00000           8.531037          232.14133
     58       0.00000           8.601593          234.06126
     59       0.00000           8.601593          234.06126
     60       0.00000           8.871036          241.39317
     61       0.00000          21.848228          594.52054
     62       0.00000          21.993937          598.48548

  Highest occupied state (VBM) at     -8.22673840 eV
  | Occupation number:      2.00000000

  Lowest unoccupied state (CBM) at    -4.32328418 eV
  | Occupation number:      0.00000000

  Overall HOMO-LUMO gap:      3.90345422 eV.

  Self-consistency cycle converged.

  End self-consistency iteration #     9       :  max(cpu_time)    wall_clock(cpu1)
  | Time for this iteration                    :        0.772 s           0.773 s
  | Charge density update                      :        0.136 s           0.134 s
  | Density mixing                             :        0.032 s           0.032 s
  | Hartree multipole update                   :        0.064 s           0.065 s
  | Hartree multipole summation                :        0.264 s           0.261 s
  | Integration                                :        0.268 s           0.266 s
  | Fock matrix evaluation                     :        0.012 s           0.012 s
  | Solution of K.-S. eqns.                    :        0.004 s           0.002 s
  | Total energy evaluation                    :        0.000 s           0.000 s
------------------------------------------------------------

  Energy and forces in a compact form:
  | Total energy uncorrected      :         -0.215538555286603E+02 eV
  | Total energy corrected        :         -0.215538555286603E+02 eV  <-- do not rely on this value for anything but (periodic) metals
  | Electronic free energy        :         -0.215538555286603E+02 eV

  ------------------------------------ 
  Start decomposition of the XC Energy 
  ------------------------------------ 
  Hartree-Fock part   :          0.319730781 Ha              8.700317227 eV
  ------------------------------------ 
  X Energy            :          0.319730781 Ha              8.700317227 eV
  C Energy GGA        :          0.000000000 Ha              0.000000000 eV
  Total XC Energy     :          0.319730781 Ha              8.700317227 eV
  LDA X and C from self-consistent density 
  X Energy LDA        :         -0.344307755 Ha             -9.369090710 eV
  C Energy LDA        :         -0.074563743 Ha             -2.028982677 eV
  ------------------------------------ 
  End decomposition of the XC Energy 
  ------------------------------------ 
---------------------------------------------
---------------------------------------------
 | MP2 calculation starts ...
---------------------------------------------

  | Note : Resolution of identity applied 
  | Note : Non spin-polarized system 
---------------------------------------------
  | Homo level                                        1
  | Lumo level                                        2
  | Total Number of states                           62
  | Number of k-points                                1
  | Homo-Lumo Gap                            0.14344931 Ha          3.90345422 eV
---------------------------------------------
  The ovlp_3KS matrix takes another      0 MiB x      4 procs =       0.000 GiB.


---------------------------------------------
| Sum of correlation terms 
---------------------------------------------
  | Pair state     1                    :         -4.21632499 eV         -4.21632499 eV

---------------------------------------------
| Correlation energy spectrum 
---------------------------------------------
  |     2    :         -0.15887777        -0.13256186
  |     3    :          0.18018482        -0.00172288
  |     4    :          0.20629806        -0.00606325
  |     5    :          0.35388668        -0.00112204
  |     6    :          0.37873288        -0.00098151
  |     7    :          0.37873288        -0.00098151
  |     8    :          0.39556978        -0.00082616
  |     9    :          0.39556978        -0.00082616
  |    10    :          0.45529721        -0.00092258
  |    11    :          0.97418135        -0.00123960
  |    12    :          0.98223230        -0.00263288
  |    13    :          1.18005167        -0.00011026
  |    14    :          1.19596684        -0.00010574
  |    15    :          1.19596684        -0.00010574
  |    16    :          1.20432893        -0.00009571
  |    17    :          1.20432894        -0.00009571
  |    18    :          1.20637541        -0.00009395
  |    19    :          1.20637541        -0.00009395
  |    20    :          1.21634416        -0.00009790
  |    21    :          1.21634416        -0.00009790
  |    22    :          1.24371400        -0.00011606
  |    23    :          1.77871809        -0.00045942
  |    24    :          1.81513218        -0.00043852
  |    25    :          1.81513218        -0.00043852
  |    26    :          1.84415643        -0.00042812
  |    27    :          1.84415643        -0.00042812
  |    28    :          1.95938371        -0.00038515
  |    29    :          3.46952384        -0.00002147
  |    30    :          3.47379999        -0.00002032
  |    31    :          3.47379999        -0.00002032
  |    32    :          3.47645156        -0.00001970
  |    33    :          3.47645157        -0.00001970
  |    34    :          3.47650693        -0.00001917
  |    35    :          3.47650693        -0.00001917
  |    36    :          3.47660737        -0.00001915
  |    37    :          3.47660737        -0.00001915
  |    38    :          3.47789799        -0.00001957
  |    39    :          3.47789800        -0.00001957
  |    40    :          3.48153046        -0.00001986
  |    41    :          3.48153046        -0.00001986
  |    42    :          3.48746587        -0.00002035
  |    43    :          3.84442084        -0.00025264
  |    44    :          3.88193975        -0.00029864
  |    45    :          5.26667252        -0.00003704
  |    46    :          5.29663369        -0.00003659
  |    47    :          5.29663369        -0.00003659
  |    48    :          5.31674584        -0.00003623
  |    49    :          5.31674584        -0.00003623
  |    50    :          5.32160424        -0.00003621
  |    51    :          5.32160425        -0.00003621
  |    52    :          5.34423050        -0.00003628
  |    53    :          5.34423050        -0.00003628
  |    54    :          5.41010013        -0.00003618
  |    55    :          8.44973512        -0.00004629
  |    56    :          8.53103696        -0.00004524
  |    57    :          8.53103696        -0.00004524
  |    58    :          8.60159306        -0.00004409
  |    59    :          8.60159306        -0.00004409
  |    60    :          8.87103587        -0.00004082
  |    61    :         21.84822814        -0.00000887
  |    62    :         21.99393719        -0.00000877
---------------------------------------------
 
 
 
          ---------------------------------------------
          | MP2 calculation comes to finish ...  
 
          ---------------------------------------------
          | Total time for calculating MP2 correction              :        0.000 s

          ---------------------------------------------

---------------------------------------------
  | HF Energy                      :         -0.79208963 Ha        -21.55385553 eV
  | MP2 correction                 :         -0.15494710 Ha         -4.21632499 eV
---------------------------------------------
  | Total Energy + MP2 correction  :         -0.94703673 Ha        -25.77018052 eV
---------------------------------------------

------------------------------------------------------------------------------
  Final output of selected total energy values:

  The following output summarizes some interesting total energy values
  at the end of a run (AFTER all relaxation, molecular dynamics, etc.).

  | Total energy of the DFT / Hartree-Fock s.c.f. calculation      :            -21.553855529 eV
  | Final zero-broadening corrected energy (caution - metals only) :            -21.553855529 eV
  | Total energy after the post-s.c.f. correlation calculation     :            -25.770180519 eV
  | For reference only, the value of 1 Hartree used in FHI-aims is :             27.211384500 eV

  Before relying on these values, please be sure to understand exactly which
  total energy value is referred to by a given number. Different objects may
  all carry the same name 'total energy'. Definitions:

  Total energy of the DFT / Hartree-Fock s.c.f. calculation:
  | Note that this energy does not include ANY quantities calculated after the
  | s.c.f. cycle, in particular not ANY RPA, MP2, etc. many-body perturbation terms.

  Final zero-broadening corrected energy:
  | For metallic systems only, a broadening of the occupation numbers at the Fermi
  | level can be extrapolated back to zero broadening by an electron-gas inspired
  | formula. For all systems that are not real metals, this value can be
  | meaningless and should be avoided.

  Total energy of the post-s.c.f. correlation calculation        :
  | The actual meaning of this energy depends on the setting for the 'total_energy_method'
  | keyword (MP2, RPA, rPT2, etc). If not sure, compare to the results listed above.

------------------------------------------------------------------------------

  Methods described in the following list of references were used in this FHI-aims run.
  If you publish the results, please make sure to cite these reference if they apply.
  FHI-aims is an academic code, and for our developers (often, Ph.D. students
  and postdocs), scientific credit in the community is essential.
  Thank you for helping us!

  For any use of FHI-aims, please cite:

    Volker Blum, Ralf Gehrke, Felix Hanke, Paula Havu, Ville Havu,
    Xinguo Ren, Karsten Reuter, and Matthias Scheffler,
    "Ab initio molecular simulations with numeric atom-centered orbitals"
    Computer Physics Communications 180, 2175-2196 (2009).
    http://dx.doi.org/10.1016/j.cpc.2009.06.022

  For Hartree-Fock, hybrid functionals, or many-body perturbation theory used in your run, please cite:

    Xinguo Ren, Patrick Rinke, Volker Blum, Juergen Wieferink, Alex Tkatchenko,
    Andrea Sanfilippo, Karsten Reuter, and Matthias Scheffler,
    "Resolution-of-identity approach to Hartree-Fock, hybrid density functionals,
     RPA, MP2, and GW with numeric atom-centered orbital basis functions"
    New Journal of Physics 14, 053020 (2012).
    http://dx.doi.org/10.1088/1367-2630/14/5/053020

  For the NAO-VCC-nZ basis sets used in this calculation, please cite:

    Igor Ying Zhang, Xinguo Ren, Patrick Rinke, Volker Blum, and Matthias Scheffler,
    "Numeric atom-centered-orbital basis sets with valence-correlation consistency from H to Ar"
    New Journal of Physics 15, 123033 (2013).
    http://dx.doi.org/10.1088/1367-2630/15/12/123033

  For the real-space grid partitioning and parallelization used in this calculation, please cite:

    Ville Havu, Volker Blum, Paula Havu, and Matthias Scheffler,
    "Efficient O(N) integration for all-electron electronic
    structure calculation using numerically tabulated basis functions"
    Journal of Computational Physics 228, 8367-8379 (2009).
    http://dx.doi.org/10.1016/j.jcp.2009.08.008

  Of course, there are many other important community references, e.g., those cited in the
  above references. Our list is limited to references that describe implementations in the FHI-aims
  code. The reason is purely practical (length of this list) - please credit others as well.

------------------------------------------------------------
          Leaving FHI-aims.
          Date     :  20140812, Time     :  112504.080

          Computational steps:
          | Number of self-consistency cycles          :            9

          Detailed time accounting                     :  max(cpu_time)    wall_clock(cpu1)
          | Total time                                 :       31.778 s          31.824 s
          | Preparation time                           :        0.152 s           0.183 s
          | Grid partitioning                          :        0.244 s           0.243 s
          | Preloading free-atom quantities on grid    :        0.072 s           0.069 s
          | Free-atom superposition energy             :        0.040 s           0.040 s
          | Total time for integrations                :        2.896 s           2.882 s
          | Product basis setup: Total time            :        0.000 s           0.000 s
          | Product basis: | 3-center integrations     :       23.309 s          23.342 s
          | Product basis: | 2-center integrations     :        0.256 s           0.253 s
          | Product basis: | 2-center linear algebra   :        0.088 s           0.087 s
          | Product basis: | 3-center x 2-center       :        0.024 s           0.025 s
          | Total time evaluating exchange matrix      :        0.120 s           0.111 s
          | Transforming ovlp_3fn to ovlp_3KS          :        0.012 s           0.011 s
          | Total time for solution of K.-S. equations :        0.032 s           0.017 s
          | Total time for density update              :        1.236 s           1.226 s
          | Total time for mixing                      :        0.148 s           0.146 s
          | Total time for Hartree multipole update    :        0.616 s           0.597 s
          | Total time for Hartree multipole sum       :        2.372 s           2.366 s
          | Total time for total energy evaluation     :        0.008 s           0.005 s

          Have a nice day.
------------------------------------------------------------
