  MPI-parallelism will be employed.
------------------------------------------------------------
          Invoking FHI-aims ...
          Version 072414
          Compiled on 2014/08/06 at 00:00:04 on host theobook58.

          When using FHI-aims, please cite the following reference:

          Volker Blum, Ralf Gehrke, Felix Hanke, Paula Havu,
          Ville Havu, Xinguo Ren, Karsten Reuter, and Matthias Scheffler,
          'Ab Initio Molecular Simulations with Numeric Atom-Centered Orbitals: FHI-aims',
          Computer Physics Communications 180, 2175-2196 (2009)

          For any questions about FHI-aims, please visit the aimsclub website
          with its forums and wiki. Contributions to both the forums and the
          wiki are warmly encouraged - they are for you, and everyone is welcome there.

------------------------------------------------------------

  Date     :  20140812, Time     :  112608.966
  Time zero on CPU 1             :   0.160000000000000E-01  s.
  Internal wall clock time zero  :           177074768.966  s.

  Using        4 parallel tasks.
  Task        0 on host theobook58 reporting.
  Task        1 on host theobook58 reporting.
  Task        2 on host theobook58 reporting.
  Task        3 on host theobook58 reporting.

  Performing system and environment tests:
  | Environment variable OMP_NUM_THREADS correctly set to 1.
  | Stacksize not measured: no C compiler
  | Checking for scalapack...
  | No scalapack compiled in.

  Obtaining array dimensions for all initial allocations:
  
  -----------------------------------------------------------------------
  Parsing control.in (first pass over file, find array dimensions only).
  The contents of control.in will be repeated verbatim below
  unless switched off by setting 'verbatim_writeout .false.' .
  in the first line of control.in .
  -----------------------------------------------------------------------
  
  xc                      hf
  total_energy_method     mp2
  relativistic            none
  occupation_type         integer 0.0001
  mixer                   pulay
  n_max_pulay             10
  charge_mix_param        0.6
  sc_iter_limit           600
  sc_accuracy_rho         1E-6
  sc_accuracy_eev         1E-4
  sc_accuracy_etot        1E-6
  override_illconditioning .true.
  charge                  0
  ################################################################################
  #
  #  FHI-aims code project
  # Igor Ying Zhang and Xinguo Ren, Fritz Haber Institute Berlin, 2012
  #
  #  Suggested "NAO-VCC-4Z" defaults for H atom (to be pasted into control.in file)
  #
  #  Please cite:
  #
  #  Igor Ying Zhang, Xinguo Ren, Patrick Rinke, Volker Blum, and Matthias Scheffler,
  #  "Numeric atom-centered-orbital basis sets with valence-correlation consistency from H to Ar"
  #  New Journal of Physics 15, 123033 (2013).
  #  http://dx.doi.org/10.1088/1367-2630/15/12/123033
  #
  ################################################################################
    species        H
  #     set basis set reference for FHI-aims output
      cite_reference NAO-VCC-2013
  #     global species definitions
      nucleus             1
      mass                1.00794
  #
      l_hartree           6
  #
      cut_pot             4.0  2.0  1.0
      basis_dep_cutoff    0e-4
  #
      radial_base         24 7.0
  radial_multiplier               6
      angular_grids       specified
        division   0.1930   50
        division   0.3175  110
        division   0.4293  194
        division   0.5066  302
        division   0.5626  434
        division   0.5922  590
  #      division   0.6227  974
  #      division   0.6868 1202
        outer_grid  770
  #      outer_grid  434
  ################################################################################
  #
  #  Definition of "minimal" basis
  #
  ################################################################################
  #     valence basis states
      valence      1  s   1.
  #     ion occupancy
      ion_occ      1  s   0.5
  ################################################################################
  
  
   basis_acc              1e-04
  #============================================
  # Optimization in      H for       NAO-VCC-4Z
  #============================================
  # (sp) correlation set
   hydro     1     s      1.15655525
   hydro     1     s      1.68684502
   hydro     1     s      2.46027686
   hydro     2     p      2.92145897
   hydro     2     p      4.14501835
   hydro     2     p      5.88102632
  # polarization set
   hydro     3     d      6.41446874
   hydro     3     d      7.67536483
   hydro     4     f     10.80870049
  # (sp) enhanced minimal set
   hydro     1     s      3.58833335
  
  -----------------------------------------------------------------------
  Completed first pass over input file control.in .
  -----------------------------------------------------------------------
  
  
  -----------------------------------------------------------------------
  Parsing geometry.in (first pass over file, find array dimensions only).
  The contents of geometry.in will be repeated verbatim below
  unless switched off by setting 'verbatim_writeout .false.' .
  in the first line of geometry.in .
  -----------------------------------------------------------------------
  
  atom             0.0             0.0             0.0    H
  atom             0.0             0.0             5.0    H
  
  -----------------------------------------------------------------------
  Completed first pass over input file geometry.in .
  -----------------------------------------------------------------------
  

  Basic array size parameters:
  | Number of species                 :        1
  | Number of atoms                   :        2
  | Max. basis fn. angular momentum   :        3
  | Max. atomic/ionic basis occupied n:        1
  | Max. number of basis fn. types    :        2
  | Max. radial fns per species/type  :       10
  | Max. logarithmic grid size        :     1131
  | Max. radial integration grid size :      149
  | Max. angular integration grid size:      770
  | Max. angular grid division number :        8
  | Radial grid for Hartree potential :     1131
  | Number of spin channels           :        1

------------------------------------------------------------
          Reading file control.in.
------------------------------------------------------------
 
  Hartree-Fock calculation starts ...... 
  Attention: this version of Hartree-Fock employs an auxiliary basis. 
 
  MP2 correlation energy calculation will be started after the DFT/HF calculation.
  Non-relativistic treatment of kinetic energy.
  Occupation type: Integer occupation.
  Using pulay charge density mixing.
  Pulay mixing - number of memorized iterations:   10
  Charge density mixing - mixing parameter:     0.6000
  Maximum number of s.-c. iterations  :   600
  Convergence accuracy of self-consistent charge density: 0.1000E-05
  Convergence accuracy of sum of eigenvalues: 0.1000E-03
  Convergence accuracy of total energy: 0.1000E-05
  override_illconditioning: Explicitly overriding any built-in checks for an ill-conditioned overlap matrix.
  *** WARNING: If you use this flag, you should really know what you are doing.
  *** DO NOT keep this flag set by default in all your control.in files.
  Charge =   0.000000E+00: Neutral system requested explicitly.
 
  Reading configuration options for species H                   .
  | Found nuclear charge :   1.0000
  | Found atomic mass :    1.00794000000000      amu
  | Found l_max for Hartree potential  :   6
  | Found cutoff potl. onset [A], width [A], scale factor :    4.00000    2.00000    1.00000
  | Threshold for basis-dependent cutoff potential is   0.000000E+00
  | Found data for basic radial integration grid :    24 points, outermost radius =    7.000 A
  | Found multiplier for basic radial grid :   6
  | Found angular grid specification: user-specified.
  | Specified grid contains     7 separate shells.
  | Check grid settings after all constraints further below.
  | Found free-atom valence shell :  1 s   1.000
  | No ionic wave fns used. Skipping ion_occ.
  | Found basis singularity cutoff : 0.1000E-03
  | Found hydrogenic basis function :  1 s   1.157
  | Found hydrogenic basis function :  1 s   1.687
  | Found hydrogenic basis function :  1 s   2.460
  | Found hydrogenic basis function :  2 p   2.921
  | Found hydrogenic basis function :  2 p   4.145
  | Found hydrogenic basis function :  2 p   5.881
  | Found hydrogenic basis function :  3 d   6.414
  | Found hydrogenic basis function :  3 d   7.675
  | Found hydrogenic basis function :  4 f  10.809
  | Found hydrogenic basis function :  1 s   3.588
  Species H                   : Missing cutoff potential type.
  Defaulting to exp(1/x)/(1-x)^2 type cutoff potential.
  Species H : No 'logarithmic' tag. Using default grid for free atom:
  | Default logarithmic grid data [bohr] : 0.1000E-03 0.1000E+03 0.1012E+01
  Species H                   : Using default innermost maximum threshold i_radial=  2 for radial functions.
  Species H                   : Default cutoff onset for free atom density etc. is infinite
  since the product basis is used (hybrid functionals, Hartree-Fock, GW etc.).
  Species H                   : Basic radial grid will be enhanced according to radial_multiplier =   6, to contain   149 grid points.
 
  Finished reading input file 'control.in'. Consistency checks are next.
 
  Species H: Using default value for prodbas_acc =   1.000000E-02.
  Species H: Using default value max_l_prodbas =     5.
  Target number of points in a grid batch is not set. Defaulting to  100
  Method for grid partitioning is not set. Defaulting to parallel hash+maxmin partitioning.
  Batch size limit is not set. Defaulting to    200
  By default, will store active basis functions for each batch.
  If in need of memory, prune_basis_once .false. can be used to disable this option.
  communication_type for Hartree potential was not specified.
  Defaulting to calc_hartree .
  Pulay mixer: Number of initial linear mixing iterations not set.
  Defaulting to    0 iterations.
  Work space size for distributed Hartree potential not set.
  Defaulting to   0.200000E+03 MB.
  Algorithm-dependent basis array size parameters:
  | n_max_pulay                         :       10
  Calculation of forces was not defined in control.in. No forces will be calculated.
  Geometry relaxation not requested: no relaxation will be performed.
  No accuracy limit for integral partition fn. given. Defaulting to 0.1000E-14.
  No threshold value for u(r) in integrations given. Defaulting to 0.1000E-05.
  No accuracy for occupation numbers given. Defaulting to 0.1000E-07.
  No threshold value for occupation numbers given. Defaulting to 0.0000E+00.
  No accuracy for fermi level given. Defaulting to 0.1000E-19.
  Maximum # of iterations to find E_F not set. Defaulting to  200.
  Preferred method for the eigenvalue solver ('KS_method') not specified in 'control.in'.
  Calling blacs routine to test compilation state
  The best choice would be 'elpa', but your version of FHI-aims is compiled without scalapack support.
  Defaulting to 'lapack_fast' instead (serial solution, time will not improve with more CPUs).
  Will not use alltoall communication since running on < 1024 CPUs.
  Threshold for basis singularities not set.
  Default threshold for basis singularities: 0.1000E-04
  partition_type (choice of integration weights) for integrals was not specified.
  | Using a version of the partition function of Stratmann and coworkers ('stratmann_smoother').
  | At each grid point, the set of atoms used to build the partition table is smoothly restricted to
  | only those atoms whose free-atom density would be non-zero at that grid point.
  Partitioning for Hartree potential was not defined. Using partition_type for integrals.
  | Adjusted default value of keyword multip_moments_threshold to:       0.10000000E-11
  | This value may affect high angular momentum components of the Hartree potential in periodic systems.
  Spin handling was not defined in control.in. Defaulting to unpolarized case.
  Threshold for auxiliary basis singularities not set.
  Default threshold for auxiliary basis singularities: 0.1000E-04
  No q(lm)/r^(l+1) cutoff set for long-range Hartree potential.
  | Using default value of  0.100000E-09 .
  | Verify using the multipole_threshold keyword.
  Defaulting to new monopole extrapolation.
  Density update method: automatic selection selected.
  Default to 1D ("use_logsbt") integrations for auxiliary 2-center integrals.
  Default onset of logarithmic r-grid for SBT is-38.000000000000
  Default onset of logarithmic k-grid for SBT is-25.000000000000
  Default range of logarithmic r- and k-grid for SBT is 45.000000000000
  Default number of logarithmic r- and k-grid for SBT is  4096
------------------------------------------------------------


------------------------------------------------------------
          Reading geometry description geometry.in.
------------------------------------------------------------
  Input structure read successfully.
  The structure contains        2 atoms,  and a total of          2.000 electrons.

  Input geometry:
  | No unit cell requested.
  | Atomic structure:
  |       Atom                x [A]            y [A]            z [A]
  |    1: Species H              0.000000         0.000000         0.000000
  |    2: Species H              0.000000         0.000000         5.000000
  |

  | The smallest distance between any two atoms is         5.00000000 AA.
  |
  | The first atom of this pair is atom number                      1 .
  | The second atom of this pair is atom number                     2 .

  Number of empty states per atom not set in control.in .
  | Since you are using a method that relies on the unoccupied spectrum
  | (MP2,GW,RPA et al.), will use the full Hamiltonian size (see below)
  | as the max. possible number of states (occupied plus empty).

  Structure-dependent array size parameters: 
  | Maximum number of distinct radial functions  :       11
  | Maximum number of basis functions            :       62
  | Number of Kohn-Sham states (occupied + empty):       62
------------------------------------------------------------

------------------------------------------------------------
          Preparing all fixed parts of the calculation.
------------------------------------------------------------
  Determining machine precision:
    2.225073858507201E-308
  Setting up grids for atomic and cluster calculations.

  Creating wave function, potential, and density for free atoms.

  Species: H

  List of occupied orbitals and eigenvalues:
    n    l              occ      energy [Ha]    energy [eV]
    1    0           1.0000        -0.233457        -6.3527

  Creating fixed part of basis set: Ionic, confined, hydrogenic.
 
  H                    hydrogenic:
 
  List of hydrogenic basis orbitals: 
    n    l      effective z      eigenvalue [eV]  inner max. [A]     outer max. [A]     outer radius [A]   
    1    0         1.156555       -18.1992           0.460320           0.460320           5.243229
    1    0         1.686845       -38.7143           0.315118           0.315118           4.932336
    1    0         2.460277       -82.3547           0.215718           0.215718           3.815562
    2    1         2.921459       -29.0309           0.723605           0.723605           5.243229
    2    1         4.145018       -58.4405           0.507614           0.507614           4.813203
    2    1         5.881026      -117.6432           0.360475           0.360475           3.678162
    3    2         6.414469       -62.2013           0.741515           0.741515           4.993004
    3    2         7.675365       -89.0587           0.617279           0.617279           4.583499
    4    3        10.808700       -99.3454           0.778676           0.778676           4.696947
    1    0         3.588333      -175.1887           0.147673           0.147673           2.644120
 

  Adding cutoff potential to free-atom effective potential.
  Creating atomic-like basis functions for current effective potential.

  Species H                   :

  List of atomic basis orbitals and eigenvalues:
    n    l      energy [Ha]    energy [eV]    outer radius [A]
    1    0        -0.233418        -6.3516       5.373006

  Assembling full basis from fixed parts.
  | Species H :   atomic orbital   1 s accepted.
  | Species H :    hydro orbital   1 s accepted.
  | Species H :    hydro orbital   1 s accepted.
  | Species H :    hydro orbital   1 s accepted.
  | Species H :    hydro orbital   1 s accepted.
  | Species H :    hydro orbital   2 p accepted.
  | Species H :    hydro orbital   2 p accepted.
  | Species H :    hydro orbital   2 p accepted.
  | Species H :    hydro orbital   3 d accepted.
  | Species H :    hydro orbital   3 d accepted.
  | Species H :    hydro orbital   4 f accepted.
 
  Basis size parameters after reduction:
  | Total number of radial functions:       11
  | Total number of basis functions :       62
 
  Testing on-site integration grid accuracy.
  |  Species  Function  <phi|h_atom|phi> (log., in eV)  <phi|h_atom|phi> (rad., in eV)
           1        1                 -6.3519216712                 -6.3519215989
           1        2                  8.4716038567                  8.4716058028
           1        3                 58.3749927434                 58.3750109815
           1        4                178.9024737125                178.9026031671
           1        5                456.3642310330                456.3649721232
           1        6                 16.2415699263                 16.2415699338
           1        7                 68.2932618880                 68.2932619123
           1        8                188.3801588017                188.3801587562
           1        9                 49.9849006789                 49.9849006869
           1       10                114.3821731125                114.3821730675
           1       11                 88.0899419283                 88.0899419237

  Preparing densities etc. for the partition functions (integrals / Hartree potential).

  Preparations completed.
  max(cpu_time)          :      0.200 s.
  Wall clock time (cpu1) :      0.213 s.
------------------------------------------------------------

------------------------------------------------------------
          Begin self-consistency loop: Initialization.

          Date     :  20140812, Time     :  112609.183
------------------------------------------------------------

  Initializing index lists of integration centers etc. from given atomic structure:
  | Number of centers in hartree potential         :         2
  | Number of centers in hartree multipole         :         2
  | Number of centers in electron density summation:         2
  | Number of centers in basis integrals           :         2
  | Number of centers in integrals                 :         2
  Partitioning the integration grid into batches with parallel hashing+maxmin method.
  | Number of batches:     1716
  | Maximal batch size:     150
  | Minimal batch size:      65
  | Average batch size:      84.152
  | Standard deviation of batch sizes:      27.998

  Integration load balanced across     4 MPI tasks.
  Work distribution over tasks is as follows:
  Task     0 has      36111 integration points.
  Task     1 has      36137 integration points.
  Task     2 has      36104 integration points.
  Task     3 has      36052 integration points.
  Initializing partition tables, free-atom densities, potentials, etc. across the integration grid (initialize_grid_storage).
  | Original list of interatomic distances with           2 x          2 entries is created.
  | Net number of integration points:   144404
  | of which are non-zero points    :   142722
  Obtaining max. number of non-zero basis functions in each batch (get_n_compute_maxes).
  | Maximal number of non-zero basis functions:       62 in task     0
  | Maximal number of non-zero basis functions:       62 in task     1
  | Maximal number of non-zero basis functions:       62 in task     2
  | Maximal number of non-zero basis functions:       62 in task     3
  Selecting the method for density update.
  Loop over occupied states selected for charge density update.
  Integrating Hamiltonian matrix: batch-based integration.
  Time summed over all CPUs for integration: real work        1.067 s, elapsed        1.084 s
  Integrating overlap matrix.
  Time summed over all CPUs for integration: real work        0.648 s, elapsed        0.660 s

  Updating Kohn-Sham eigenvalues, eigenvectors, occupation numbers, and Fermi level.
  Solving generalized eigenproblem
  Updating Kohn-Sham eigenvalues and eigenfunctions.
  Transforming overlap matrix and checking for singularities.
  Overlap matrix is nonsingular:
  | Lowest eigenvalue:  0.770741E+00
  Solving real generalised eigenvalue problem by standard LAPACK (fast)
  Determining occupation numbers for Kohn-Sham eigenstates.
  | Chemical potential (Fermi level) in eV                 : -.63527374E+01
  | Error in electron count due to remaining E_F inaccuracy: 0.00000000E+00
  | Maximum occupation number of highest empty state:  0.00E+00

  Writing Kohn-Sham eigenvalues.

  State    Occupation    Eigenvalue [Ha]    Eigenvalue [eV]
      1       2.00000          -0.234297           -6.37555
      2       0.00000          -0.232620           -6.32992
      3       0.00000           0.082867            2.25492
      4       0.00000           0.117260            3.19082
      5       0.00000           0.239437            6.51542
      6       0.00000           0.244400            6.65047
      7       0.00000           0.244400            6.65047
      8       0.00000           0.246210            6.69971
      9       0.00000           0.246210            6.69971
     10       0.00000           0.257329            7.00227
     11       0.00000           0.768901           20.92286
     12       0.00000           0.795534           21.64759
     13       0.00000           1.021557           27.79799
     14       0.00000           1.022045           27.81126
     15       0.00000           1.022045           27.81126
     16       0.00000           1.022662           27.82806
     17       0.00000           1.022662           27.82806
     18       0.00000           1.022751           27.83047
     19       0.00000           1.022751           27.83047
     20       0.00000           1.023354           27.84689
     21       0.00000           1.023354           27.84689
     22       0.00000           1.028378           27.98358
     23       0.00000           1.571595           42.76528
     24       0.00000           1.586257           43.16424
     25       0.00000           1.586257           43.16424
     26       0.00000           1.591211           43.29905
     27       0.00000           1.591211           43.29905
     28       0.00000           1.617942           44.02644
     29       0.00000           3.236867           88.07963
     30       0.00000           3.237126           88.08667
     31       0.00000           3.237126           88.08667
     32       0.00000           3.237229           88.08947
     33       0.00000           3.237229           88.08947
     34       0.00000           3.237245           88.08991
     35       0.00000           3.237245           88.08991
     36       0.00000           3.237246           88.08995
     37       0.00000           3.237246           88.08995
     38       0.00000           3.237260           88.09034
     39       0.00000           3.237260           88.09034
     40       0.00000           3.237362           88.09311
     41       0.00000           3.237362           88.09311
     42       0.00000           3.237542           88.09799
     43       0.00000           3.515249           95.65478
     44       0.00000           3.557885           96.81498
     45       0.00000           5.012229          136.38968
     46       0.00000           5.015780          136.48632
     47       0.00000           5.015780          136.48632
     48       0.00000           5.017539          136.53418
     49       0.00000           5.017539          136.53418
     50       0.00000           5.017801          136.54130
     51       0.00000           5.017801          136.54130
     52       0.00000           5.019563          136.58926
     53       0.00000           5.019563          136.58926
     54       0.00000           5.030015          136.87366
     55       0.00000           8.151032          221.80088
     56       0.00000           8.189002          222.83409
     57       0.00000           8.189002          222.83409
     58       0.00000           8.201854          223.18381
     59       0.00000           8.201854          223.18381
     60       0.00000           8.269073          225.01294
     61       0.00000          21.365005          581.37136
     62       0.00000          21.515939          585.47848

  Highest occupied state (VBM) at     -6.37555487 eV
  | Occupation number:      2.00000000

  Lowest unoccupied state (CBM) at    -6.32991985 eV
  | Occupation number:      0.00000000

  Overall HOMO-LUMO gap:      0.04563502 eV.
  Calculating total energy contributions from superposition of free atom densities.

  Total energy components:
  | Sum of eigenvalues            :          -0.46859467 Ha         -12.75110973 eV
  | XC energy correction          :          -0.46500739 Ha         -12.65349490 eV
  | XC potential correction       :           0.60613917 Ha          16.49388588 eV
  | Free-atom electrostatic energy:          -0.56553421 Ha         -15.38896882 eV
  | Hartree energy correction     :           0.00000000 Ha           0.00000000 eV
  | Entropy correction            :           0.00000000 Ha           0.00000000 eV
  | ---------------------------
  | Total energy                  :          -0.89299710 Ha         -24.29968757 eV
  | Total energy, T -> 0          :          -0.89299710 Ha         -24.29968757 eV  <-- do not rely on this value for anything but (periodic) metals
  | Electronic free energy        :          -0.89299710 Ha         -24.29968757 eV

  Derived energy quantities:
  | Kinetic energy                :           0.84811634 Ha          23.07841970 eV
  | Electrostatic energy          :          -1.27610605 Ha         -34.72461237 eV
  | Energy correction for multipole
  | error in Hartree potential    :           0.00000000 Ha           0.00000000 eV
  | Sum of eigenvalues per atom                           :          -6.37555487 eV
  | Total energy (T->0) per atom                          :         -12.14984379 eV  <-- do not rely on this value for anything but (periodic) metals
  | Electronic free energy per atom                       :         -12.14984379 eV
 
 --------------------------------------------
  Constructing auxiliary basis (full product) ...
 
  Product basis:
  | charge radius: extent of product basis function
  | field radius: extent of its Coulomb potential
  | Species   l  charge radius    field radius  multipol momen
  |    H      5     4.813203 A      4.813203 A  2.676041E-15 a.u.
  |    H      4     4.932336 A      4.932336 A  2.417679E-16 a.u.
  |    H      3     5.054418 A      5.054418 A  ************ a.u.
  |    H      4     5.054418 A      5.054418 A  ************ a.u.
  |    H      3     5.116587 A      5.116587 A  1.642688E-15 a.u.
  |    H      2     5.179521 A      5.179521 A  6.126280E-16 a.u.
  |    H      3     5.179521 A      5.179521 A  ************ a.u.
  |    H      2     5.243229 A      5.243229 A  1.485543E-16 a.u.
  |    H      2     5.243229 A      5.243229 A  1.683301E-16 a.u.
  |    H      2     5.243229 A      5.243229 A  ************ a.u.
  |    H      3     5.243229 A      5.243229 A  ************ a.u.
  |    H      1     5.307721 A      5.307721 A  2.416866E-16 a.u.
  |    H      1     5.307721 A      5.307721 A  1.291012E-16 a.u.
  |    H      2     5.307721 A      5.307721 A  7.871382E-16 a.u.
  |    H      0     5.373006 A      5.373006 A  9.519909E-17 a.u.
  |    H      1     5.373006 A      5.373006 A  2.334090E-16 a.u.
  |    H      1     5.373006 A      5.373006 A  ************ a.u.
  |    H      1     5.373006 A      5.373006 A  ************ a.u.
  |    H      1     5.373006 A      5.373006 A  1.823473E-16 a.u.
  |    H      0     5.373006 A      5.439094 A  ************ a.u.
  |    H      0     5.439094 A      5.439094 A  ************ a.u.
  |    H      0     5.439094 A      5.505995 A  9.305319E-17 a.u.
  |    H      0     5.439094 A      5.505995 A  4.082184E-17 a.u.
  |    H      0     5.439094 A      5.505995 A  3.169850E-16 a.u.
  |    H      0     5.439094 A      5.505995 A  2.711689E-16 a.u.
  |    H      5     4.872405 A  1.325110E+02 A           19.619780 a.u.
  |    H      4     5.054418 A  3.771796E+02 A           14.639479 a.u.
  |    H      3     5.243229 A  1.836978E+03 A           11.555842 a.u.
  |    H      2     5.307721 A  2.095310E+04 A            4.940052 a.u.
  |    H      1     5.373006 A  2.512347E+06 A            1.793689 a.u.
  |    H      0     5.439094 A  4.604132E+12 A            0.692368 a.u.

  | Shrink_full_auxil_basis : there are       31  radial auxiliary wave functions
                            accepted and      90 rejected.
  | Shrink_full_auxil_basis : there are totally     286 partial auxiliary wave functions.
 
  | Number of product basis functions per thread :    72
  | Minimal requirement for computer memories :           0.005 Gbs
 
  Basis pair condensation :      1953  -->       1953
 
 ----------------------------------------------------
  Integrating the 3-basis-function Coulomb matrix ...
  | i_atom:            1
  | i_atom:            2
  Integrating the Coulomb interaction matrix for auxiliary basis functions (by atoms)

  SBT integration errors (all should be 'small'):
  large logFT aliasing -> increase N/lnrange
  large SBT aliasing -> decrease lnk0 & increase lnk0+lnrange
  large SBT ringing -> decrease lnr0 & increase lnr0+lnrange
  |            El't  L: logFT-al.   small-k   large-k   small-r   large-r
  Atomic logSBT for 2-center Coulomb matrix    :  max(cpu_time)    wall_clock(cpu1)
  | Multiplication with kernel                 :        0.020 s           0.011 s
  | Main matrix multiplication                 :        0.064 s           0.040 s
  | Analytic angular integration               :        0.000 s           0.002 s
  | Kernel construction                        :        0.008 s           0.002 s
  | Overall 2-center overlap time              :        0.096 s           0.061 s

  Difference of Coulomb matrix to its transposed:  1.1102E-16
  Task     0: Eigenvalues of the Coulomb matrix range from    1.8013E+00 to    1.9852E-01.
  Task     0: Using      286   eigenvalues out of rank      286   Coulomb matrix (auxiliary basis).
 
  Multiplying V^-0.5 x ovlp_3fn (1d-scalapack)

  Initialize hartree_potential_storage
  Max. number of atoms included in rho_multipole:            2

  End scf initialization - timings             :  max(cpu_time)    wall_clock(cpu1)
  | Time for scf. initialization               :       24.606 s          24.630 s
  | Boundary condition initialization          :        0.004 s           0.000 s
  | Integration                                :        0.436 s           0.436 s
  | Solution of K.-S. eqns.                    :        0.004 s           0.005 s
  | Grid partitioning                          :        0.240 s           0.241 s
  | Preloading free-atom quantities on grid    :        0.068 s           0.066 s
  | Free-atom superposition energy             :        0.036 s           0.036 s
  | Total energy evaluation                    :        0.000 s           0.000 s
  | Product basis setup: Total time            :       23.749 s          23.770 s
  | Product basis: | 3-center integrations     :       23.265 s          23.287 s
  | Product basis: | 2-center integrations     :        0.256 s           0.257 s
  | Product basis: | 2-center linear algebra   :        0.092 s           0.092 s
  | Product basis: | 3-center x 2-center       :        0.028 s           0.025 s
------------------------------------------------------------

------------------------------------------------------------
          Begin self-consistency iteration #    1

  Date     :  20140812, Time     :  112633.814
------------------------------------------------------------
  Evaluating new KS density.
  Integration grid: deviation in total charge (<rho> - N_e) =  -5.551115E-15
  Pulay mixing of updated and previous charge densities.

  Evaluating partitioned Hartree potential by multipole expansion.
  | Analytical far-field extrapolation by fixed multipoles:
  | Hartree multipole sum: apparent total charge =  -0.105665E-06
  Summing up the Hartree potential.
  Time summed over all CPUs for potential: real work        1.033 s, elapsed        1.041 s
  | RMS charge density error from multipole expansion :   0.705936E-05

  Integrating Hamiltonian matrix: batch-based integration.
  Time summed over all CPUs for integration: real work        0.978 s, elapsed        1.010 s
  Evaluating the exchange matrix ... 

  Updating Kohn-Sham eigenvalues, eigenvectors, occupation numbers, and Fermi level.
  Solving generalized eigenproblem
  Updating Kohn-Sham eigenvalues and eigenfunctions.
  Solving real generalised eigenvalue problem by standard LAPACK (fast)
  Determining occupation numbers for Kohn-Sham eigenstates.
  | Chemical potential (Fermi level) in eV                 : -.58864382E+01
  | Error in electron count due to remaining E_F inaccuracy: 0.00000000E+00
  | Maximum occupation number of highest empty state:  0.00E+00

  Writing Kohn-Sham eigenvalues.

  State    Occupation    Eigenvalue [Ha]    Eigenvalue [eV]
      1       2.00000          -0.270524           -7.36132
      2       0.00000          -0.162122           -4.41156
      3       0.00000           0.173500            4.72118
      4       0.00000           0.211502            5.75528
      5       0.00000           0.389926           10.61044
      6       0.00000           0.396999           10.80290
      7       0.00000           0.396999           10.80290
      8       0.00000           0.400553           10.89960
      9       0.00000           0.400553           10.89960
     10       0.00000           0.413987           11.26516
     11       0.00000           0.975105           26.53395
     12       0.00000           1.000751           27.23181
     13       0.00000           1.218581           33.15929
     14       0.00000           1.219143           33.17458
     15       0.00000           1.219143           33.17458
     16       0.00000           1.219829           33.19322
     17       0.00000           1.219829           33.19322
     18       0.00000           1.219970           33.19706
     19       0.00000           1.219970           33.19706
     20       0.00000           1.220752           33.21834
     21       0.00000           1.220752           33.21834
     22       0.00000           1.226299           33.36929
     23       0.00000           1.838873           50.03827
     24       0.00000           1.854008           50.45013
     25       0.00000           1.854008           50.45013
     26       0.00000           1.859173           50.59067
     27       0.00000           1.859173           50.59067
     28       0.00000           1.887034           51.34881
     29       0.00000           3.500727           95.25964
     30       0.00000           3.500936           95.26530
     31       0.00000           3.500936           95.26530
     32       0.00000           3.500984           95.26662
     33       0.00000           3.500984           95.26662
     34       0.00000           3.500987           95.26669
     35       0.00000           3.500987           95.26669
     36       0.00000           3.501016           95.26748
     37       0.00000           3.501016           95.26748
     38       0.00000           3.501054           95.26854
     39       0.00000           3.501054           95.26854
     40       0.00000           3.501197           95.27242
     41       0.00000           3.501197           95.27242
     42       0.00000           3.501475           95.27998
     43       0.00000           3.872467          105.37519
     44       0.00000           3.915103          106.53536
     45       0.00000           5.352836          145.65808
     46       0.00000           5.356460          145.75669
     47       0.00000           5.356460          145.75669
     48       0.00000           5.358220          145.80459
     49       0.00000           5.358220          145.80459
     50       0.00000           5.358492          145.81199
     51       0.00000           5.358492          145.81199
     52       0.00000           5.360352          145.86261
     53       0.00000           5.360352          145.86261
     54       0.00000           5.371082          146.15459
     55       0.00000           8.572639          233.27337
     56       0.00000           8.610985          234.31681
     57       0.00000           8.610985          234.31681
     58       0.00000           8.624020          234.67151
     59       0.00000           8.624020          234.67151
     60       0.00000           8.692107          236.52427
     61       0.00000          21.876274          595.28370
     62       0.00000          22.027022          599.38577

  Highest occupied state (VBM) at     -7.36132056 eV
  | Occupation number:      2.00000000

  Lowest unoccupied state (CBM) at    -4.41155586 eV
  | Occupation number:      0.00000000

  Overall HOMO-LUMO gap:      2.94976470 eV.

  Total energy components:
  | Sum of eigenvalues            :          -0.54104712 Ha         -14.72264111 eV
  | XC energy correction          :           0.33371304 Ha           9.08079393 eV
  | XC potential correction       :           0.00000000 Ha           0.00000000 eV
  | Free-atom electrostatic energy:          -0.56553421 Ha         -15.38896882 eV
  | Hartree energy correction     :           0.00237282 Ha           0.06456766 eV
  | Entropy correction            :           0.00000000 Ha           0.00000000 eV
  | ---------------------------
  | Total energy                  :          -0.77049546 Ha         -20.96624834 eV
  | Total energy, T -> 0          :          -0.77049546 Ha         -20.96624834 eV  <-- do not rely on this value for anything but (periodic) metals
  | Electronic free energy        :          -0.77049546 Ha         -20.96624834 eV

  Derived energy quantities:
  | Kinetic energy                :           0.83563907 Ha          22.73889603 eV
  | Electrostatic energy          :          -1.27242149 Ha         -34.62435044 eV
  | Energy correction for multipole
  | error in Hartree potential    :           0.00000004 Ha           0.00000102 eV
  | Sum of eigenvalues per atom                           :          -7.36132056 eV
  | Total energy (T->0) per atom                          :         -10.48312417 eV  <-- do not rely on this value for anything but (periodic) metals
  | Electronic free energy per atom                       :         -10.48312417 eV

  Self-consistency convergence accuracy:
  | Change of charge density      : 0.2356E-02
  | Change of sum of eigenvalues  : -.1972E+01 eV
  | Change of total energy        : 0.3333E+01 eV

  End self-consistency iteration #     1       :  max(cpu_time)    wall_clock(cpu1)
  | Time for this iteration                    :        0.724 s           0.723 s
  | Charge density update                      :        0.128 s           0.127 s
  | Density mixing                             :        0.004 s           0.003 s
  | Hartree multipole update                   :        0.064 s           0.065 s
  | Hartree multipole summation                :        0.264 s           0.261 s
  | Integration                                :        0.256 s           0.252 s
  | Fock matrix evaluation                     :        0.012 s           0.012 s
  | Solution of K.-S. eqns.                    :        0.000 s           0.001 s
  | Total energy evaluation                    :        0.000 s           0.000 s
------------------------------------------------------------

------------------------------------------------------------
          Begin self-consistency iteration #    2

  Date     :  20140812, Time     :  112634.538
------------------------------------------------------------
  Evaluating new KS density.
  Integration grid: deviation in total charge (<rho> - N_e) =   1.776357E-15
  Pulay mixing of updated and previous charge densities.

  Evaluating partitioned Hartree potential by multipole expansion.
  | Analytical far-field extrapolation by fixed multipoles:
  | Hartree multipole sum: apparent total charge =  -0.102861E-06
  Summing up the Hartree potential.
  Time summed over all CPUs for potential: real work        1.036 s, elapsed        1.049 s
  | RMS charge density error from multipole expansion :   0.627791E-05

  Integrating Hamiltonian matrix: batch-based integration.
  Time summed over all CPUs for integration: real work        0.966 s, elapsed        0.991 s
  Evaluating the exchange matrix ... 

  Updating Kohn-Sham eigenvalues, eigenvectors, occupation numbers, and Fermi level.
  Solving generalized eigenproblem
  Updating Kohn-Sham eigenvalues and eigenfunctions.
  Solving real generalised eigenvalue problem by standard LAPACK (fast)
  Determining occupation numbers for Kohn-Sham eigenstates.
  | Chemical potential (Fermi level) in eV                 : -.58724367E+01
  | Error in electron count due to remaining E_F inaccuracy: 0.00000000E+00
  | Maximum occupation number of highest empty state:  0.00E+00

  Highest occupied state (VBM) at     -7.34681891 eV
  | Occupation number:      2.00000000

  Lowest unoccupied state (CBM) at    -4.39805453 eV
  | Occupation number:      0.00000000

  Overall HOMO-LUMO gap:      2.94876438 eV.

  Total energy components:
  | Sum of eigenvalues            :          -0.53998126 Ha         -14.69363782 eV
  | XC energy correction          :           0.32193507 Ha           8.76029901 eV
  | XC potential correction       :           0.00000000 Ha           0.00000000 eV
  | Free-atom electrostatic energy:          -0.56553421 Ha         -15.38896882 eV
  | Hartree energy correction     :           0.00028202 Ha           0.00767414 eV
  | Entropy correction            :           0.00000000 Ha           0.00000000 eV
  | ---------------------------
  | Total energy                  :          -0.78329838 Ha         -21.31463348 eV
  | Total energy, T -> 0          :          -0.78329838 Ha         -21.31463348 eV  <-- do not rely on this value for anything but (periodic) metals
  | Electronic free energy        :          -0.78329838 Ha         -21.31463348 eV

  Derived energy quantities:
  | Kinetic energy                :           0.81503018 Ha          22.17809955 eV
  | Electrostatic energy          :          -1.27639349 Ha         -34.73243402 eV
  | Energy correction for multipole
  | error in Hartree potential    :           0.00000003 Ha           0.00000090 eV
  | Sum of eigenvalues per atom                           :          -7.34681891 eV
  | Total energy (T->0) per atom                          :         -10.65731674 eV  <-- do not rely on this value for anything but (periodic) metals
  | Electronic free energy per atom                       :         -10.65731674 eV

  Self-consistency convergence accuracy:
  | Change of charge density      : 0.3024E-01
  | Change of sum of eigenvalues  : 0.2900E-01 eV
  | Change of total energy        : -.3484E+00 eV

  End self-consistency iteration #     2       :  max(cpu_time)    wall_clock(cpu1)
  | Time for this iteration                    :        0.716 s           0.716 s
  | Charge density update                      :        0.124 s           0.122 s
  | Density mixing                             :        0.004 s           0.004 s
  | Hartree multipole update                   :        0.064 s           0.065 s
  | Hartree multipole summation                :        0.264 s           0.263 s
  | Integration                                :        0.248 s           0.248 s
  | Fock matrix evaluation                     :        0.012 s           0.012 s
  | Solution of K.-S. eqns.                    :        0.000 s           0.001 s
  | Total energy evaluation                    :        0.000 s           0.001 s
------------------------------------------------------------

------------------------------------------------------------
          Begin self-consistency iteration #    3

  Date     :  20140812, Time     :  112635.254
------------------------------------------------------------
  Evaluating new KS density.
  Integration grid: deviation in total charge (<rho> - N_e) =  -1.332268E-15
  Pulay mixing of updated and previous charge densities.

  Evaluating partitioned Hartree potential by multipole expansion.
  | Analytical far-field extrapolation by fixed multipoles:
  | Hartree multipole sum: apparent total charge =  -0.845254E-07
  Summing up the Hartree potential.
  Time summed over all CPUs for potential: real work        1.049 s, elapsed        1.063 s
  | RMS charge density error from multipole expansion :   0.209483E-04

  Integrating Hamiltonian matrix: batch-based integration.
  Time summed over all CPUs for integration: real work        0.974 s, elapsed        0.995 s
  Evaluating the exchange matrix ... 

  Updating Kohn-Sham eigenvalues, eigenvectors, occupation numbers, and Fermi level.
  Solving generalized eigenproblem
  Updating Kohn-Sham eigenvalues and eigenfunctions.
  Solving real generalised eigenvalue problem by standard LAPACK (fast)
  Determining occupation numbers for Kohn-Sham eigenstates.
  | Chemical potential (Fermi level) in eV                 : -.60857391E+01
  | Error in electron count due to remaining E_F inaccuracy: 0.00000000E+00
  | Maximum occupation number of highest empty state:  0.00E+00

  Highest occupied state (VBM) at     -7.56811314 eV
  | Occupation number:      2.00000000

  Lowest unoccupied state (CBM) at    -4.60336515 eV
  | Occupation number:      0.00000000

  Overall HOMO-LUMO gap:      2.96474799 eV.

  Total energy components:
  | Sum of eigenvalues            :          -0.55624609 Ha         -15.13622628 eV
  | XC energy correction          :           0.31558670 Ha           8.58755102 eV
  | XC potential correction       :           0.00000000 Ha           0.00000000 eV
  | Free-atom electrostatic energy:          -0.56553421 Ha         -15.38896882 eV
  | Hartree energy correction     :           0.03140829 Ha           0.85466298 eV
  | Entropy correction            :           0.00000000 Ha           0.00000000 eV
  | ---------------------------
  | Total energy                  :          -0.77478532 Ha         -21.08298111 eV
  | Total energy, T -> 0          :          -0.77478532 Ha         -21.08298111 eV  <-- do not rely on this value for anything but (periodic) metals
  | Electronic free energy        :          -0.77478532 Ha         -21.08298111 eV

  Derived energy quantities:
  | Kinetic energy                :           0.75678269 Ha          20.59310475 eV
  | Electrostatic energy          :          -1.21598131 Ha         -33.08853484 eV
  | Energy correction for multipole
  | error in Hartree potential    :           0.00000012 Ha           0.00000327 eV
  | Sum of eigenvalues per atom                           :          -7.56811314 eV
  | Total energy (T->0) per atom                          :         -10.54149056 eV  <-- do not rely on this value for anything but (periodic) metals
  | Electronic free energy per atom                       :         -10.54149056 eV

  Self-consistency convergence accuracy:
  | Change of charge density      : 0.3142E-01
  | Change of sum of eigenvalues  : -.4426E+00 eV
  | Change of total energy        : 0.2317E+00 eV

  End self-consistency iteration #     3       :  max(cpu_time)    wall_clock(cpu1)
  | Time for this iteration                    :        0.728 s           0.726 s
  | Charge density update                      :        0.124 s           0.123 s
  | Density mixing                             :        0.008 s           0.008 s
  | Hartree multipole update                   :        0.064 s           0.064 s
  | Hartree multipole summation                :        0.268 s           0.267 s
  | Integration                                :        0.248 s           0.249 s
  | Fock matrix evaluation                     :        0.012 s           0.012 s
  | Solution of K.-S. eqns.                    :        0.000 s           0.002 s
  | Total energy evaluation                    :        0.000 s           0.000 s
------------------------------------------------------------

------------------------------------------------------------
          Begin self-consistency iteration #    4

  Date     :  20140812, Time     :  112635.980
------------------------------------------------------------
  Evaluating new KS density.
  Integration grid: deviation in total charge (<rho> - N_e) =   1.287859E-14
  Pulay mixing of updated and previous charge densities.

  Evaluating partitioned Hartree potential by multipole expansion.
  | Analytical far-field extrapolation by fixed multipoles:
  | Hartree multipole sum: apparent total charge =  -0.982172E-07
  Summing up the Hartree potential.
  Time summed over all CPUs for potential: real work        1.036 s, elapsed        1.050 s
  | RMS charge density error from multipole expansion :   0.361594E-04

  Integrating Hamiltonian matrix: batch-based integration.
  Time summed over all CPUs for integration: real work        0.964 s, elapsed        0.990 s
  Evaluating the exchange matrix ... 

  Updating Kohn-Sham eigenvalues, eigenvectors, occupation numbers, and Fermi level.
  Solving generalized eigenproblem
  Updating Kohn-Sham eigenvalues and eigenfunctions.
  Solving real generalised eigenvalue problem by standard LAPACK (fast)
  Determining occupation numbers for Kohn-Sham eigenstates.
  | Chemical potential (Fermi level) in eV                 : -.62784764E+01
  | Error in electron count due to remaining E_F inaccuracy: 0.00000000E+00
  | Maximum occupation number of highest empty state:  0.00E+00

  Highest occupied state (VBM) at     -7.76875527 eV
  | Occupation number:      2.00000000

  Lowest unoccupied state (CBM) at    -4.78819760 eV
  | Occupation number:      0.00000000

  Overall HOMO-LUMO gap:      2.98055767 eV.

  Total energy components:
  | Sum of eigenvalues            :          -0.57099302 Ha         -15.53751054 eV
  | XC energy correction          :           0.30830593 Ha           8.38943122 eV
  | XC potential correction       :           0.00000000 Ha           0.00000000 eV
  | Free-atom electrostatic energy:          -0.56553421 Ha         -15.38896882 eV
  | Hartree energy correction     :           0.05822551 Ha           1.58439672 eV
  | Entropy correction            :           0.00000000 Ha           0.00000000 eV
  | ---------------------------
  | Total energy                  :          -0.76999579 Ha         -20.95265143 eV
  | Total energy, T -> 0          :          -0.76999579 Ha         -20.95265143 eV  <-- do not rely on this value for anything but (periodic) metals
  | Electronic free energy        :          -0.76999579 Ha         -20.95265143 eV

  Derived energy quantities:
  | Kinetic energy                :           0.69989044 Ha          19.04498794 eV
  | Electrostatic energy          :          -1.16158030 Ha         -31.60820815 eV
  | Energy correction for multipole
  | error in Hartree potential    :           0.00000024 Ha           0.00000641 eV
  | Sum of eigenvalues per atom                           :          -7.76875527 eV
  | Total energy (T->0) per atom                          :         -10.47632572 eV  <-- do not rely on this value for anything but (periodic) metals
  | Electronic free energy per atom                       :         -10.47632572 eV

  Self-consistency convergence accuracy:
  | Change of charge density      : 0.1381E-01
  | Change of sum of eigenvalues  : -.4013E+00 eV
  | Change of total energy        : 0.1303E+00 eV

  End self-consistency iteration #     4       :  max(cpu_time)    wall_clock(cpu1)
  | Time for this iteration                    :        0.736 s           0.735 s
  | Charge density update                      :        0.132 s           0.129 s
  | Density mixing                             :        0.012 s           0.012 s
  | Hartree multipole update                   :        0.068 s           0.068 s
  | Hartree multipole summation                :        0.264 s           0.264 s
  | Integration                                :        0.248 s           0.248 s
  | Fock matrix evaluation                     :        0.012 s           0.012 s
  | Solution of K.-S. eqns.                    :        0.004 s           0.001 s
  | Total energy evaluation                    :        0.000 s           0.001 s
------------------------------------------------------------

------------------------------------------------------------
          Begin self-consistency iteration #    5

  Date     :  20140812, Time     :  112636.715
------------------------------------------------------------
  Evaluating new KS density.
  Integration grid: deviation in total charge (<rho> - N_e) =   1.776357E-15
  Pulay mixing of updated and previous charge densities.

  Evaluating partitioned Hartree potential by multipole expansion.
  | Analytical far-field extrapolation by fixed multipoles:
  | Hartree multipole sum: apparent total charge =  -0.970190E-07
  Summing up the Hartree potential.
  Time summed over all CPUs for potential: real work        1.042 s, elapsed        1.058 s
  | RMS charge density error from multipole expansion :   0.349529E-04

  Integrating Hamiltonian matrix: batch-based integration.
  Time summed over all CPUs for integration: real work        0.954 s, elapsed        0.974 s
  Evaluating the exchange matrix ... 

  Updating Kohn-Sham eigenvalues, eigenvectors, occupation numbers, and Fermi level.
  Solving generalized eigenproblem
  Updating Kohn-Sham eigenvalues and eigenfunctions.
  Solving real generalised eigenvalue problem by standard LAPACK (fast)
  Determining occupation numbers for Kohn-Sham eigenstates.
  | Chemical potential (Fermi level) in eV                 : -.62608759E+01
  | Error in electron count due to remaining E_F inaccuracy: 0.00000000E+00
  | Maximum occupation number of highest empty state:  0.00E+00

  Highest occupied state (VBM) at     -7.75021721 eV
  | Occupation number:      2.00000000

  Lowest unoccupied state (CBM) at    -4.77153462 eV
  | Occupation number:      0.00000000

  Overall HOMO-LUMO gap:      2.97868258 eV.

  Total energy components:
  | Sum of eigenvalues            :          -0.56963049 Ha         -15.50043441 eV
  | XC energy correction          :           0.30761022 Ha           8.37049994 eV
  | XC potential correction       :           0.00000000 Ha           0.00000000 eV
  | Free-atom electrostatic energy:          -0.56553421 Ha         -15.38896882 eV
  | Hartree energy correction     :           0.05593163 Ha           1.52197714 eV
  | Entropy correction            :           0.00000000 Ha           0.00000000 eV
  | ---------------------------
  | Total energy                  :          -0.77162285 Ha         -20.99692616 eV
  | Total energy, T -> 0          :          -0.77162285 Ha         -20.99692616 eV  <-- do not rely on this value for anything but (periodic) metals
  | Electronic free energy        :          -0.77162285 Ha         -20.99692616 eV

  Derived energy quantities:
  | Kinetic energy                :           0.70264027 Ha          19.11981457 eV
  | Electrostatic energy          :          -1.16665291 Ha         -31.74624079 eV
  | Energy correction for multipole
  | error in Hartree potential    :           0.00000022 Ha           0.00000595 eV
  | Sum of eigenvalues per atom                           :          -7.75021721 eV
  | Total energy (T->0) per atom                          :         -10.49846308 eV  <-- do not rely on this value for anything but (periodic) metals
  | Electronic free energy per atom                       :         -10.49846308 eV

  Self-consistency convergence accuracy:
  | Change of charge density      : 0.1421E-02
  | Change of sum of eigenvalues  : 0.3708E-01 eV
  | Change of total energy        : -.4427E-01 eV

  End self-consistency iteration #     5       :  max(cpu_time)    wall_clock(cpu1)
  | Time for this iteration                    :        0.732 s           0.733 s
  | Charge density update                      :        0.124 s           0.123 s
  | Density mixing                             :        0.016 s           0.016 s
  | Hartree multipole update                   :        0.068 s           0.070 s
  | Hartree multipole summation                :        0.268 s           0.265 s
  | Integration                                :        0.244 s           0.244 s
  | Fock matrix evaluation                     :        0.012 s           0.012 s
  | Solution of K.-S. eqns.                    :        0.004 s           0.001 s
  | Total energy evaluation                    :        0.000 s           0.000 s
------------------------------------------------------------

------------------------------------------------------------
          Begin self-consistency iteration #    6

  Date     :  20140812, Time     :  112637.448
------------------------------------------------------------
  Evaluating new KS density.
  Integration grid: deviation in total charge (<rho> - N_e) =  -1.776357E-15
  Pulay mixing of updated and previous charge densities.

  Evaluating partitioned Hartree potential by multipole expansion.
  | Analytical far-field extrapolation by fixed multipoles:
  | Hartree multipole sum: apparent total charge =  -0.969949E-07
  Summing up the Hartree potential.
  Time summed over all CPUs for potential: real work        1.040 s, elapsed        1.065 s
  | RMS charge density error from multipole expansion :   0.349410E-04

  Integrating Hamiltonian matrix: batch-based integration.
  Time summed over all CPUs for integration: real work        0.963 s, elapsed        0.991 s
  Evaluating the exchange matrix ... 

  Updating Kohn-Sham eigenvalues, eigenvectors, occupation numbers, and Fermi level.
  Solving generalized eigenproblem
  Updating Kohn-Sham eigenvalues and eigenfunctions.
  Solving real generalised eigenvalue problem by standard LAPACK (fast)
  Determining occupation numbers for Kohn-Sham eigenstates.
  | Chemical potential (Fermi level) in eV                 : -.62607347E+01
  | Error in electron count due to remaining E_F inaccuracy: 0.00000000E+00
  | Maximum occupation number of highest empty state:  0.00E+00

  Highest occupied state (VBM) at     -7.75008181 eV
  | Occupation number:      2.00000000

  Lowest unoccupied state (CBM) at    -4.77138752 eV
  | Occupation number:      0.00000000

  Overall HOMO-LUMO gap:      2.97869429 eV.

  Total energy components:
  | Sum of eigenvalues            :          -0.56962054 Ha         -15.50016361 eV
  | XC energy correction          :           0.30772242 Ha           8.37355321 eV
  | XC potential correction       :           0.00000000 Ha           0.00000000 eV
  | Free-atom electrostatic energy:          -0.56553421 Ha         -15.38896882 eV
  | Hartree energy correction     :           0.05590974 Ha           1.52138130 eV
  | Entropy correction            :           0.00000000 Ha           0.00000000 eV
  | ---------------------------
  | Total energy                  :          -0.77152259 Ha         -20.99419793 eV
  | Total energy, T -> 0          :          -0.77152259 Ha         -20.99419793 eV  <-- do not rely on this value for anything but (periodic) metals
  | Electronic free energy        :          -0.77152259 Ha         -20.99419793 eV

  Derived energy quantities:
  | Kinetic energy                :           0.70290255 Ha          19.12695158 eV
  | Electrostatic energy          :          -1.16670272 Ha         -31.74759630 eV
  | Energy correction for multipole
  | error in Hartree potential    :           0.00000022 Ha           0.00000595 eV
  | Sum of eigenvalues per atom                           :          -7.75008181 eV
  | Total energy (T->0) per atom                          :         -10.49709896 eV  <-- do not rely on this value for anything but (periodic) metals
  | Electronic free energy per atom                       :         -10.49709896 eV

  Self-consistency convergence accuracy:
  | Change of charge density      : 0.1480E-04
  | Change of sum of eigenvalues  : 0.2708E-03 eV
  | Change of total energy        : 0.2728E-02 eV

  End self-consistency iteration #     6       :  max(cpu_time)    wall_clock(cpu1)
  | Time for this iteration                    :        0.736 s           0.738 s
  | Charge density update                      :        0.124 s           0.123 s
  | Density mixing                             :        0.020 s           0.020 s
  | Hartree multipole update                   :        0.064 s           0.066 s
  | Hartree multipole summation                :        0.268 s           0.267 s
  | Integration                                :        0.248 s           0.248 s
  | Fock matrix evaluation                     :        0.012 s           0.012 s
  | Solution of K.-S. eqns.                    :        0.000 s           0.001 s
  | Total energy evaluation                    :        0.000 s           0.001 s
------------------------------------------------------------

------------------------------------------------------------
          Begin self-consistency iteration #    7

  Date     :  20140812, Time     :  112638.186
------------------------------------------------------------
  Evaluating new KS density.
  Integration grid: deviation in total charge (<rho> - N_e) =   0.000000E+00
  Pulay mixing of updated and previous charge densities.

  Evaluating partitioned Hartree potential by multipole expansion.
  | Analytical far-field extrapolation by fixed multipoles:
  | Hartree multipole sum: apparent total charge =  -0.969708E-07
  Summing up the Hartree potential.
  Time summed over all CPUs for potential: real work        1.033 s, elapsed        1.040 s
  | RMS charge density error from multipole expansion :   0.349453E-04

  Integrating Hamiltonian matrix: batch-based integration.
  Time summed over all CPUs for integration: real work        0.963 s, elapsed        0.979 s
  Evaluating the exchange matrix ... 

  Updating Kohn-Sham eigenvalues, eigenvectors, occupation numbers, and Fermi level.
  Solving generalized eigenproblem
  Updating Kohn-Sham eigenvalues and eigenfunctions.
  Solving real generalised eigenvalue problem by standard LAPACK (fast)
  Determining occupation numbers for Kohn-Sham eigenstates.
  | Chemical potential (Fermi level) in eV                 : -.62608465E+01
  | Error in electron count due to remaining E_F inaccuracy: 0.00000000E+00
  | Maximum occupation number of highest empty state:  0.00E+00

  Highest occupied state (VBM) at     -7.75023358 eV
  | Occupation number:      2.00000000

  Lowest unoccupied state (CBM) at    -4.77145941 eV
  | Occupation number:      0.00000000

  Overall HOMO-LUMO gap:      2.97877417 eV.

  Total energy components:
  | Sum of eigenvalues            :          -0.56963170 Ha         -15.50046716 eV
  | XC energy correction          :           0.30772553 Ha           8.37363784 eV
  | XC potential correction       :           0.00000000 Ha           0.00000000 eV
  | Free-atom electrostatic energy:          -0.56553421 Ha         -15.38896882 eV
  | Hartree energy correction     :           0.05591578 Ha           1.52154572 eV
  | Entropy correction            :           0.00000000 Ha           0.00000000 eV
  | ---------------------------
  | Total energy                  :          -0.77152460 Ha         -20.99425242 eV
  | Total energy, T -> 0          :          -0.77152460 Ha         -20.99425242 eV  <-- do not rely on this value for anything but (periodic) metals
  | Electronic free energy        :          -0.77152460 Ha         -20.99425242 eV

  Derived energy quantities:
  | Kinetic energy                :           0.70289609 Ha          19.12677569 eV
  | Electrostatic energy          :          -1.16669515 Ha         -31.74739027 eV
  | Energy correction for multipole
  | error in Hartree potential    :           0.00000022 Ha           0.00000596 eV
  | Sum of eigenvalues per atom                           :          -7.75023358 eV
  | Total energy (T->0) per atom                          :         -10.49712621 eV  <-- do not rely on this value for anything but (periodic) metals
  | Electronic free energy per atom                       :         -10.49712621 eV

  Self-consistency convergence accuracy:
  | Change of charge density      : 0.1295E-05
  | Change of sum of eigenvalues  : -.3035E-03 eV
  | Change of total energy        : -.5449E-04 eV

  End self-consistency iteration #     7       :  max(cpu_time)    wall_clock(cpu1)
  | Time for this iteration                    :        0.732 s           0.732 s
  | Charge density update                      :        0.124 s           0.121 s
  | Density mixing                             :        0.024 s           0.023 s
  | Hartree multipole update                   :        0.068 s           0.065 s
  | Hartree multipole summation                :        0.264 s           0.261 s
  | Integration                                :        0.244 s           0.245 s
  | Fock matrix evaluation                     :        0.016 s           0.015 s
  | Solution of K.-S. eqns.                    :        0.004 s           0.001 s
  | Total energy evaluation                    :        0.000 s           0.000 s
------------------------------------------------------------

------------------------------------------------------------
          Begin self-consistency iteration #    8

  Date     :  20140812, Time     :  112638.919
------------------------------------------------------------
  Evaluating new KS density.
  Integration grid: deviation in total charge (<rho> - N_e) =   7.549517E-15
  Pulay mixing of updated and previous charge densities.

  Evaluating partitioned Hartree potential by multipole expansion.
  | Analytical far-field extrapolation by fixed multipoles:
  | Hartree multipole sum: apparent total charge =  -0.969708E-07
  Summing up the Hartree potential.
  Time summed over all CPUs for potential: real work        1.044 s, elapsed        1.066 s
  | RMS charge density error from multipole expansion :   0.349454E-04

  Integrating Hamiltonian matrix: batch-based integration.
  Time summed over all CPUs for integration: real work        0.960 s, elapsed        0.988 s
  Evaluating the exchange matrix ... 

  Updating Kohn-Sham eigenvalues, eigenvectors, occupation numbers, and Fermi level.
  Solving generalized eigenproblem
  Updating Kohn-Sham eigenvalues and eigenfunctions.
  Solving real generalised eigenvalue problem by standard LAPACK (fast)
  Determining occupation numbers for Kohn-Sham eigenstates.
  | Chemical potential (Fermi level) in eV                 : -.62608484E+01
  | Error in electron count due to remaining E_F inaccuracy: 0.00000000E+00
  | Maximum occupation number of highest empty state:  0.00E+00

  Highest occupied state (VBM) at     -7.75023538 eV
  | Occupation number:      2.00000000

  Lowest unoccupied state (CBM) at    -4.77146138 eV
  | Occupation number:      0.00000000

  Overall HOMO-LUMO gap:      2.97877400 eV.

  Total energy components:
  | Sum of eigenvalues            :          -0.56963183 Ha         -15.50047076 eV
  | XC energy correction          :           0.30772400 Ha           8.37359610 eV
  | XC potential correction       :           0.00000000 Ha           0.00000000 eV
  | Free-atom electrostatic energy:          -0.56553421 Ha         -15.38896882 eV
  | Hartree energy correction     :           0.05591609 Ha           1.52155428 eV
  | Entropy correction            :           0.00000000 Ha           0.00000000 eV
  | ---------------------------
  | Total energy                  :          -0.77152595 Ha         -20.99428920 eV
  | Total energy, T -> 0          :          -0.77152595 Ha         -20.99428920 eV  <-- do not rely on this value for anything but (periodic) metals
  | Electronic free energy        :          -0.77152595 Ha         -20.99428920 eV

  Derived energy quantities:
  | Kinetic energy                :           0.70289241 Ha          19.12667572 eV
  | Electrostatic energy          :          -1.16669436 Ha         -31.74736882 eV
  | Energy correction for multipole
  | error in Hartree potential    :           0.00000022 Ha           0.00000596 eV
  | Sum of eigenvalues per atom                           :          -7.75023538 eV
  | Total energy (T->0) per atom                          :         -10.49714460 eV  <-- do not rely on this value for anything but (periodic) metals
  | Electronic free energy per atom                       :         -10.49714460 eV

  Self-consistency convergence accuracy:
  | Change of charge density      : 0.1186E-06
  | Change of sum of eigenvalues  : -.3602E-05 eV
  | Change of total energy        : -.3678E-04 eV

  End self-consistency iteration #     8       :  max(cpu_time)    wall_clock(cpu1)
  | Time for this iteration                    :        0.756 s           0.756 s
  | Charge density update                      :        0.128 s           0.127 s
  | Density mixing                             :        0.028 s           0.028 s
  | Hartree multipole update                   :        0.072 s           0.072 s
  | Hartree multipole summation                :        0.268 s           0.268 s
  | Integration                                :        0.248 s           0.247 s
  | Fock matrix evaluation                     :        0.012 s           0.012 s
  | Solution of K.-S. eqns.                    :        0.004 s           0.001 s
  | Total energy evaluation                    :        0.000 s           0.000 s
------------------------------------------------------------

------------------------------------------------------------
          Begin self-consistency iteration #    9

  Date     :  20140812, Time     :  112639.675
------------------------------------------------------------
  Evaluating new KS density.
  Integration grid: deviation in total charge (<rho> - N_e) =   3.552714E-15
  Pulay mixing of updated and previous charge densities.

  Evaluating partitioned Hartree potential by multipole expansion.
  | Analytical far-field extrapolation by fixed multipoles:
  | Hartree multipole sum: apparent total charge =  -0.969705E-07
  Summing up the Hartree potential.
  Time summed over all CPUs for potential: real work        1.045 s, elapsed        1.060 s
  | RMS charge density error from multipole expansion :   0.349453E-04

  Integrating Hamiltonian matrix: batch-based integration.
  Time summed over all CPUs for integration: real work        0.966 s, elapsed        1.002 s
  Evaluating the exchange matrix ... 

  Updating Kohn-Sham eigenvalues, eigenvectors, occupation numbers, and Fermi level.
  Solving generalized eigenproblem
  Updating Kohn-Sham eigenvalues and eigenfunctions.
  Solving real generalised eigenvalue problem by standard LAPACK (fast)
  Determining occupation numbers for Kohn-Sham eigenstates.
  | Chemical potential (Fermi level) in eV                 : -.62608468E+01
  | Error in electron count due to remaining E_F inaccuracy: 0.00000000E+00
  | Maximum occupation number of highest empty state:  0.00E+00

  Highest occupied state (VBM) at     -7.75023356 eV
  | Occupation number:      2.00000000

  Lowest unoccupied state (CBM) at    -4.77146005 eV
  | Occupation number:      0.00000000

  Overall HOMO-LUMO gap:      2.97877351 eV.

  Total energy components:
  | Sum of eigenvalues            :          -0.56963170 Ha         -15.50046711 eV
  | XC energy correction          :           0.30772400 Ha           8.37359601 eV
  | XC potential correction       :           0.00000000 Ha           0.00000000 eV
  | Free-atom electrostatic energy:          -0.56553421 Ha         -15.38896882 eV
  | Hartree energy correction     :           0.05591595 Ha           1.52155034 eV
  | Entropy correction            :           0.00000000 Ha           0.00000000 eV
  | ---------------------------
  | Total energy                  :          -0.77152596 Ha         -20.99428959 eV
  | Total energy, T -> 0          :          -0.77152596 Ha         -20.99428959 eV  <-- do not rely on this value for anything but (periodic) metals
  | Electronic free energy        :          -0.77152596 Ha         -20.99428959 eV

  Derived energy quantities:
  | Kinetic energy                :           0.70289272 Ha          19.12668393 eV
  | Electrostatic energy          :          -1.16669468 Ha         -31.74737751 eV
  | Energy correction for multipole
  | error in Hartree potential    :           0.00000022 Ha           0.00000596 eV
  | Sum of eigenvalues per atom                           :          -7.75023356 eV
  | Total energy (T->0) per atom                          :         -10.49714479 eV  <-- do not rely on this value for anything but (periodic) metals
  | Electronic free energy per atom                       :         -10.49714479 eV

  Self-consistency convergence accuracy:
  | Change of charge density      : 0.1143E-06
  | Change of sum of eigenvalues  : 0.3651E-05 eV
  | Change of total energy        : -.3848E-06 eV

  Writing Kohn-Sham eigenvalues.

  State    Occupation    Eigenvalue [Ha]    Eigenvalue [eV]
      1       2.00000          -0.284816           -7.75023
      2       0.00000          -0.175348           -4.77146
      3       0.00000           0.171279            4.66074
      4       0.00000           0.207543            5.64753
      5       0.00000           0.378105           10.28875
      6       0.00000           0.385241           10.48293
      7       0.00000           0.385241           10.48293
      8       0.00000           0.388974           10.58453
      9       0.00000           0.388974           10.58453
     10       0.00000           0.403112           10.96923
     11       0.00000           0.958834           26.09119
     12       0.00000           0.984150           26.78007
     13       0.00000           1.204761           32.78322
     14       0.00000           1.205267           32.79699
     15       0.00000           1.205267           32.79699
     16       0.00000           1.205747           32.81004
     17       0.00000           1.205747           32.81004
     18       0.00000           1.205894           32.81405
     19       0.00000           1.205894           32.81405
     20       0.00000           1.206921           32.84200
     21       0.00000           1.206921           32.84200
     22       0.00000           1.212527           32.99455
     23       0.00000           1.813363           49.34411
     24       0.00000           1.828205           49.74800
     25       0.00000           1.828205           49.74800
     26       0.00000           1.833341           49.88775
     27       0.00000           1.833341           49.88775
     28       0.00000           1.861331           50.64940
     29       0.00000           3.478211           94.64693
     30       0.00000           3.478211           94.64693
     31       0.00000           3.478214           94.64701
     32       0.00000           3.478214           94.64701
     33       0.00000           3.478239           94.64770
     34       0.00000           3.478401           94.65210
     35       0.00000           3.478401           94.65210
     36       0.00000           3.478421           94.65265
     37       0.00000           3.478421           94.65265
     38       0.00000           3.478441           94.65319
     39       0.00000           3.478441           94.65319
     40       0.00000           3.478688           94.65991
     41       0.00000           3.478688           94.65991
     42       0.00000           3.478995           94.66827
     43       0.00000           3.834339          104.33768
     44       0.00000           3.876836          105.49407
     45       0.00000           5.316879          144.67964
     46       0.00000           5.320459          144.77705
     47       0.00000           5.320459          144.77705
     48       0.00000           5.322084          144.82128
     49       0.00000           5.322084          144.82128
     50       0.00000           5.322357          144.82872
     51       0.00000           5.322357          144.82872
     52       0.00000           5.324358          144.88314
     53       0.00000           5.324358          144.88314
     54       0.00000           5.335136          145.17645
     55       0.00000           8.524174          231.95457
     56       0.00000           8.562341          232.99315
     57       0.00000           8.562341          232.99315
     58       0.00000           8.575364          233.34753
     59       0.00000           8.575364          233.34753
     60       0.00000           8.643476          235.20094
     61       0.00000          21.816931          593.66891
     62       0.00000          21.967647          597.77009

  Highest occupied state (VBM) at     -7.75023356 eV
  | Occupation number:      2.00000000

  Lowest unoccupied state (CBM) at    -4.77146005 eV
  | Occupation number:      0.00000000

  Overall HOMO-LUMO gap:      2.97877351 eV.

  Self-consistency cycle converged.

  End self-consistency iteration #     9       :  max(cpu_time)    wall_clock(cpu1)
  | Time for this iteration                    :        0.752 s           0.754 s
  | Charge density update                      :        0.124 s           0.123 s
  | Density mixing                             :        0.032 s           0.033 s
  | Hartree multipole update                   :        0.068 s           0.065 s
  | Hartree multipole summation                :        0.268 s           0.267 s
  | Integration                                :        0.252 s           0.251 s
  | Fock matrix evaluation                     :        0.012 s           0.012 s
  | Solution of K.-S. eqns.                    :        0.004 s           0.001 s
  | Total energy evaluation                    :        0.000 s           0.000 s
------------------------------------------------------------

  Energy and forces in a compact form:
  | Total energy uncorrected      :         -0.209942895858984E+02 eV
  | Total energy corrected        :         -0.209942895858984E+02 eV  <-- do not rely on this value for anything but (periodic) metals
  | Electronic free energy        :         -0.209942895858984E+02 eV

  ------------------------------------ 
  Start decomposition of the XC Energy 
  ------------------------------------ 
  Hartree-Fock part   :          0.307723997 Ha              8.373596012 eV
  ------------------------------------ 
  X Energy            :          0.307723997 Ha              8.373596012 eV
  C Energy GGA        :          0.000000000 Ha              0.000000000 eV
  Total XC Energy     :          0.307723997 Ha              8.373596012 eV
  LDA X and C from self-consistent density 
  X Energy LDA        :         -0.347651677 Ha             -9.460083446 eV
  C Energy LDA        :         -0.074813943 Ha             -2.035790980 eV
  ------------------------------------ 
  End decomposition of the XC Energy 
  ------------------------------------ 
---------------------------------------------
---------------------------------------------
 | MP2 calculation starts ...
---------------------------------------------

  | Note : Resolution of identity applied 
  | Note : Non spin-polarized system 
---------------------------------------------
  | Homo level                                        1
  | Lumo level                                        2
  | Total Number of states                           62
  | Number of k-points                                1
  | Homo-Lumo Gap                            0.10946791 Ha          2.97877351 eV
---------------------------------------------
  The ovlp_3KS matrix takes another      0 MiB x      4 procs =       0.000 GiB.


---------------------------------------------
| Sum of correlation terms 
---------------------------------------------
  | Pair state     1                    :         -6.03850810 eV         -6.03850810 eV

---------------------------------------------
| Correlation energy spectrum 
---------------------------------------------
  |     2    :         -0.17534793        -0.19767341
  |     3    :          0.17127919        -0.00160587
  |     4    :          0.20754277        -0.00749340
  |     5    :          0.37810463        -0.00103732
  |     6    :          0.38524074        -0.00097345
  |     7    :          0.38524074        -0.00097345
  |     8    :          0.38897446        -0.00089446
  |     9    :          0.38897446        -0.00089446
  |    10    :          0.40311185        -0.00098101
  |    11    :          0.95883360        -0.00131471
  |    12    :          0.98414952        -0.00278692
  |    13    :          1.20476133        -0.00010783
  |    14    :          1.20526718        -0.00010170
  |    15    :          1.20526718        -0.00010170
  |    16    :          1.20574683        -0.00009868
  |    17    :          1.20574684        -0.00009868
  |    18    :          1.20589425        -0.00009812
  |    19    :          1.20589426        -0.00009812
  |    20    :          1.20692123        -0.00009900
  |    21    :          1.20692123        -0.00009900
  |    22    :          1.21252731        -0.00011285
  |    23    :          1.81336265        -0.00046221
  |    24    :          1.82820534        -0.00045596
  |    25    :          1.82820534        -0.00045596
  |    26    :          1.83334103        -0.00045491
  |    27    :          1.83334103        -0.00045491
  |    28    :          1.86133108        -0.00044593
  |    29    :          3.47821080        -0.00001992
  |    30    :          3.47821080        -0.00001992
  |    31    :          3.47821351        -0.00001992
  |    32    :          3.47821351        -0.00001992
  |    33    :          3.47823921        -0.00002044
  |    34    :          3.47840076        -0.00002009
  |    35    :          3.47840078        -0.00002009
  |    36    :          3.47842111        -0.00002023
  |    37    :          3.47842111        -0.00002023
  |    38    :          3.47844073        -0.00002006
  |    39    :          3.47844075        -0.00002006
  |    40    :          3.47868776        -0.00002016
  |    41    :          3.47868776        -0.00002016
  |    42    :          3.47899512        -0.00002044
  |    43    :          3.83433919        -0.00026599
  |    44    :          3.87683587        -0.00031409
  |    45    :          5.31687896        -0.00003792
  |    46    :          5.32045878        -0.00003784
  |    47    :          5.32045878        -0.00003784
  |    48    :          5.32208428        -0.00003777
  |    49    :          5.32208429        -0.00003777
  |    50    :          5.32235745        -0.00003778
  |    51    :          5.32235746        -0.00003778
  |    52    :          5.32435767        -0.00003786
  |    53    :          5.32435767        -0.00003786
  |    54    :          5.33513636        -0.00003792
  |    55    :          8.52417382        -0.00004722
  |    56    :          8.56234087        -0.00004665
  |    57    :          8.56234087        -0.00004665
  |    58    :          8.57536407        -0.00004633
  |    59    :          8.57536407        -0.00004633
  |    60    :          8.64347580        -0.00004543
  |    61    :         21.81693133        -0.00000926
  |    62    :         21.96764705        -0.00000915
---------------------------------------------
 
 
 
          ---------------------------------------------
          | MP2 calculation comes to finish ...  
 
          ---------------------------------------------
          | Total time for calculating MP2 correction              :        0.004 s

          ---------------------------------------------

---------------------------------------------
  | HF Energy                      :         -0.77152596 Ha        -20.99428959 eV
  | MP2 correction                 :         -0.22191109 Ha         -6.03850810 eV
---------------------------------------------
  | Total Energy + MP2 correction  :         -0.99343706 Ha        -27.03279768 eV
---------------------------------------------

------------------------------------------------------------------------------
  Final output of selected total energy values:

  The following output summarizes some interesting total energy values
  at the end of a run (AFTER all relaxation, molecular dynamics, etc.).

  | Total energy of the DFT / Hartree-Fock s.c.f. calculation      :            -20.994289586 eV
  | Final zero-broadening corrected energy (caution - metals only) :            -20.994289586 eV
  | Total energy after the post-s.c.f. correlation calculation     :            -27.032797682 eV
  | For reference only, the value of 1 Hartree used in FHI-aims is :             27.211384500 eV

  Before relying on these values, please be sure to understand exactly which
  total energy value is referred to by a given number. Different objects may
  all carry the same name 'total energy'. Definitions:

  Total energy of the DFT / Hartree-Fock s.c.f. calculation:
  | Note that this energy does not include ANY quantities calculated after the
  | s.c.f. cycle, in particular not ANY RPA, MP2, etc. many-body perturbation terms.

  Final zero-broadening corrected energy:
  | For metallic systems only, a broadening of the occupation numbers at the Fermi
  | level can be extrapolated back to zero broadening by an electron-gas inspired
  | formula. For all systems that are not real metals, this value can be
  | meaningless and should be avoided.

  Total energy of the post-s.c.f. correlation calculation        :
  | The actual meaning of this energy depends on the setting for the 'total_energy_method'
  | keyword (MP2, RPA, rPT2, etc). If not sure, compare to the results listed above.

------------------------------------------------------------------------------

  Methods described in the following list of references were used in this FHI-aims run.
  If you publish the results, please make sure to cite these reference if they apply.
  FHI-aims is an academic code, and for our developers (often, Ph.D. students
  and postdocs), scientific credit in the community is essential.
  Thank you for helping us!

  For any use of FHI-aims, please cite:

    Volker Blum, Ralf Gehrke, Felix Hanke, Paula Havu, Ville Havu,
    Xinguo Ren, Karsten Reuter, and Matthias Scheffler,
    "Ab initio molecular simulations with numeric atom-centered orbitals"
    Computer Physics Communications 180, 2175-2196 (2009).
    http://dx.doi.org/10.1016/j.cpc.2009.06.022

  For Hartree-Fock, hybrid functionals, or many-body perturbation theory used in your run, please cite:

    Xinguo Ren, Patrick Rinke, Volker Blum, Juergen Wieferink, Alex Tkatchenko,
    Andrea Sanfilippo, Karsten Reuter, and Matthias Scheffler,
    "Resolution-of-identity approach to Hartree-Fock, hybrid density functionals,
     RPA, MP2, and GW with numeric atom-centered orbital basis functions"
    New Journal of Physics 14, 053020 (2012).
    http://dx.doi.org/10.1088/1367-2630/14/5/053020

  For the NAO-VCC-nZ basis sets used in this calculation, please cite:

    Igor Ying Zhang, Xinguo Ren, Patrick Rinke, Volker Blum, and Matthias Scheffler,
    "Numeric atom-centered-orbital basis sets with valence-correlation consistency from H to Ar"
    New Journal of Physics 15, 123033 (2013).
    http://dx.doi.org/10.1088/1367-2630/15/12/123033

  For the real-space grid partitioning and parallelization used in this calculation, please cite:

    Ville Havu, Volker Blum, Paula Havu, and Matthias Scheffler,
    "Efficient O(N) integration for all-electron electronic
    structure calculation using numerically tabulated basis functions"
    Journal of Computational Physics 228, 8367-8379 (2009).
    http://dx.doi.org/10.1016/j.jcp.2009.08.008

  Of course, there are many other important community references, e.g., those cited in the
  above references. Our list is limited to references that describe implementations in the FHI-aims
  code. The reason is purely practical (length of this list) - please credit others as well.

------------------------------------------------------------
          Leaving FHI-aims.
          Date     :  20140812, Time     :  112640.461

          Computational steps:
          | Number of self-consistency cycles          :            9

          Detailed time accounting                     :  max(cpu_time)    wall_clock(cpu1)
          | Total time                                 :       31.446 s          31.495 s
          | Preparation time                           :        0.200 s           0.213 s
          | Grid partitioning                          :        0.240 s           0.241 s
          | Preloading free-atom quantities on grid    :        0.068 s           0.066 s
          | Free-atom superposition energy             :        0.036 s           0.036 s
          | Total time for integrations                :        2.672 s           2.668 s
          | Product basis setup: Total time            :        0.000 s           0.000 s
          | Product basis: | 3-center integrations     :       23.265 s          23.287 s
          | Product basis: | 2-center integrations     :        0.256 s           0.257 s
          | Product basis: | 2-center linear algebra   :        0.092 s           0.092 s
          | Product basis: | 3-center x 2-center       :        0.028 s           0.025 s
          | Total time evaluating exchange matrix      :        0.112 s           0.111 s
          | Transforming ovlp_3fn to ovlp_3KS          :        0.012 s           0.010 s
          | Total time for solution of K.-S. equations :        0.024 s           0.015 s
          | Total time for density update              :        1.132 s           1.118 s
          | Total time for mixing                      :        0.148 s           0.147 s
          | Total time for Hartree multipole update    :        0.600 s           0.600 s
          | Total time for Hartree multipole sum       :        2.396 s           2.383 s
          | Total time for total energy evaluation     :        0.000 s           0.003 s

          Have a nice day.
------------------------------------------------------------
