  MPI-parallelism will be employed.
------------------------------------------------------------
          Invoking FHI-aims ...
          Version 072414
          Compiled on 2014/08/06 at 00:00:04 on host theobook58.

          When using FHI-aims, please cite the following reference:

          Volker Blum, Ralf Gehrke, Felix Hanke, Paula Havu,
          Ville Havu, Xinguo Ren, Karsten Reuter, and Matthias Scheffler,
          'Ab Initio Molecular Simulations with Numeric Atom-Centered Orbitals: FHI-aims',
          Computer Physics Communications 180, 2175-2196 (2009)

          For any questions about FHI-aims, please visit the aimsclub website
          with its forums and wiki. Contributions to both the forums and the
          wiki are warmly encouraged - they are for you, and everyone is welcome there.

------------------------------------------------------------

  Date     :  20140812, Time     :  112807.895
  Time zero on CPU 1             :   0.240010000000000E-01  s.
  Internal wall clock time zero  :           177074887.895  s.

  Using        4 parallel tasks.
  Task        0 on host theobook58 reporting.
  Task        1 on host theobook58 reporting.
  Task        2 on host theobook58 reporting.
  Task        3 on host theobook58 reporting.

  Performing system and environment tests:
  | Environment variable OMP_NUM_THREADS correctly set to 1.
  | Stacksize not measured: no C compiler
  | Checking for scalapack...
  | No scalapack compiled in.

  Obtaining array dimensions for all initial allocations:
  
  -----------------------------------------------------------------------
  Parsing control.in (first pass over file, find array dimensions only).
  The contents of control.in will be repeated verbatim below
  unless switched off by setting 'verbatim_writeout .false.' .
  in the first line of control.in .
  -----------------------------------------------------------------------
  
  xc                      hf
  total_energy_method     mp2
  relativistic            none
  occupation_type         integer 0.0001
  mixer                   pulay
  n_max_pulay             10
  charge_mix_param        0.6
  sc_iter_limit           600
  sc_accuracy_rho         1E-6
  sc_accuracy_eev         1E-4
  sc_accuracy_etot        1E-6
  override_illconditioning .true.
  charge                  0
  ################################################################################
  #
  #  FHI-aims code project
  # Igor Ying Zhang and Xinguo Ren, Fritz Haber Institute Berlin, 2012
  #
  #  Suggested "NAO-VCC-4Z" defaults for H atom (to be pasted into control.in file)
  #
  #  Please cite:
  #
  #  Igor Ying Zhang, Xinguo Ren, Patrick Rinke, Volker Blum, and Matthias Scheffler,
  #  "Numeric atom-centered-orbital basis sets with valence-correlation consistency from H to Ar"
  #  New Journal of Physics 15, 123033 (2013).
  #  http://dx.doi.org/10.1088/1367-2630/15/12/123033
  #
  ################################################################################
    species        H
  #     set basis set reference for FHI-aims output
      cite_reference NAO-VCC-2013
  #     global species definitions
      nucleus             1
      mass                1.00794
  #
      l_hartree           6
  #
      cut_pot             4.0  2.0  1.0
      basis_dep_cutoff    0e-4
  #
      radial_base         24 7.0
  radial_multiplier               6
      angular_grids       specified
        division   0.1930   50
        division   0.3175  110
        division   0.4293  194
        division   0.5066  302
        division   0.5626  434
        division   0.5922  590
  #      division   0.6227  974
  #      division   0.6868 1202
        outer_grid  770
  #      outer_grid  434
  ################################################################################
  #
  #  Definition of "minimal" basis
  #
  ################################################################################
  #     valence basis states
      valence      1  s   1.
  #     ion occupancy
      ion_occ      1  s   0.5
  ################################################################################
  
  
   basis_acc              1e-04
  #============================================
  # Optimization in      H for       NAO-VCC-4Z
  #============================================
  # (sp) correlation set
   hydro     1     s      1.15655525
   hydro     1     s      1.68684502
   hydro     1     s      2.46027686
   hydro     2     p      2.92145897
   hydro     2     p      4.14501835
   hydro     2     p      5.88102632
  # polarization set
   hydro     3     d      6.41446874
   hydro     3     d      7.67536483
   hydro     4     f     10.80870049
  # (sp) enhanced minimal set
   hydro     1     s      3.58833335
  
  -----------------------------------------------------------------------
  Completed first pass over input file control.in .
  -----------------------------------------------------------------------
  
  
  -----------------------------------------------------------------------
  Parsing geometry.in (first pass over file, find array dimensions only).
  The contents of geometry.in will be repeated verbatim below
  unless switched off by setting 'verbatim_writeout .false.' .
  in the first line of geometry.in .
  -----------------------------------------------------------------------
  
  atom             0.0             0.0             0.0    H
  atom             0.0             0.0             6.6    H
  
  -----------------------------------------------------------------------
  Completed first pass over input file geometry.in .
  -----------------------------------------------------------------------
  

  Basic array size parameters:
  | Number of species                 :        1
  | Number of atoms                   :        2
  | Max. basis fn. angular momentum   :        3
  | Max. atomic/ionic basis occupied n:        1
  | Max. number of basis fn. types    :        2
  | Max. radial fns per species/type  :       10
  | Max. logarithmic grid size        :     1131
  | Max. radial integration grid size :      149
  | Max. angular integration grid size:      770
  | Max. angular grid division number :        8
  | Radial grid for Hartree potential :     1131
  | Number of spin channels           :        1

------------------------------------------------------------
          Reading file control.in.
------------------------------------------------------------
 
  Hartree-Fock calculation starts ...... 
  Attention: this version of Hartree-Fock employs an auxiliary basis. 
 
  MP2 correlation energy calculation will be started after the DFT/HF calculation.
  Non-relativistic treatment of kinetic energy.
  Occupation type: Integer occupation.
  Using pulay charge density mixing.
  Pulay mixing - number of memorized iterations:   10
  Charge density mixing - mixing parameter:     0.6000
  Maximum number of s.-c. iterations  :   600
  Convergence accuracy of self-consistent charge density: 0.1000E-05
  Convergence accuracy of sum of eigenvalues: 0.1000E-03
  Convergence accuracy of total energy: 0.1000E-05
  override_illconditioning: Explicitly overriding any built-in checks for an ill-conditioned overlap matrix.
  *** WARNING: If you use this flag, you should really know what you are doing.
  *** DO NOT keep this flag set by default in all your control.in files.
  Charge =   0.000000E+00: Neutral system requested explicitly.
 
  Reading configuration options for species H                   .
  | Found nuclear charge :   1.0000
  | Found atomic mass :    1.00794000000000      amu
  | Found l_max for Hartree potential  :   6
  | Found cutoff potl. onset [A], width [A], scale factor :    4.00000    2.00000    1.00000
  | Threshold for basis-dependent cutoff potential is   0.000000E+00
  | Found data for basic radial integration grid :    24 points, outermost radius =    7.000 A
  | Found multiplier for basic radial grid :   6
  | Found angular grid specification: user-specified.
  | Specified grid contains     7 separate shells.
  | Check grid settings after all constraints further below.
  | Found free-atom valence shell :  1 s   1.000
  | No ionic wave fns used. Skipping ion_occ.
  | Found basis singularity cutoff : 0.1000E-03
  | Found hydrogenic basis function :  1 s   1.157
  | Found hydrogenic basis function :  1 s   1.687
  | Found hydrogenic basis function :  1 s   2.460
  | Found hydrogenic basis function :  2 p   2.921
  | Found hydrogenic basis function :  2 p   4.145
  | Found hydrogenic basis function :  2 p   5.881
  | Found hydrogenic basis function :  3 d   6.414
  | Found hydrogenic basis function :  3 d   7.675
  | Found hydrogenic basis function :  4 f  10.809
  | Found hydrogenic basis function :  1 s   3.588
  Species H                   : Missing cutoff potential type.
  Defaulting to exp(1/x)/(1-x)^2 type cutoff potential.
  Species H : No 'logarithmic' tag. Using default grid for free atom:
  | Default logarithmic grid data [bohr] : 0.1000E-03 0.1000E+03 0.1012E+01
  Species H                   : Using default innermost maximum threshold i_radial=  2 for radial functions.
  Species H                   : Default cutoff onset for free atom density etc. is infinite
  since the product basis is used (hybrid functionals, Hartree-Fock, GW etc.).
  Species H                   : Basic radial grid will be enhanced according to radial_multiplier =   6, to contain   149 grid points.
 
  Finished reading input file 'control.in'. Consistency checks are next.
 
  Species H: Using default value for prodbas_acc =   1.000000E-02.
  Species H: Using default value max_l_prodbas =     5.
  Target number of points in a grid batch is not set. Defaulting to  100
  Method for grid partitioning is not set. Defaulting to parallel hash+maxmin partitioning.
  Batch size limit is not set. Defaulting to    200
  By default, will store active basis functions for each batch.
  If in need of memory, prune_basis_once .false. can be used to disable this option.
  communication_type for Hartree potential was not specified.
  Defaulting to calc_hartree .
  Pulay mixer: Number of initial linear mixing iterations not set.
  Defaulting to    0 iterations.
  Work space size for distributed Hartree potential not set.
  Defaulting to   0.200000E+03 MB.
  Algorithm-dependent basis array size parameters:
  | n_max_pulay                         :       10
  Calculation of forces was not defined in control.in. No forces will be calculated.
  Geometry relaxation not requested: no relaxation will be performed.
  No accuracy limit for integral partition fn. given. Defaulting to 0.1000E-14.
  No threshold value for u(r) in integrations given. Defaulting to 0.1000E-05.
  No accuracy for occupation numbers given. Defaulting to 0.1000E-07.
  No threshold value for occupation numbers given. Defaulting to 0.0000E+00.
  No accuracy for fermi level given. Defaulting to 0.1000E-19.
  Maximum # of iterations to find E_F not set. Defaulting to  200.
  Preferred method for the eigenvalue solver ('KS_method') not specified in 'control.in'.
  Calling blacs routine to test compilation state
  The best choice would be 'elpa', but your version of FHI-aims is compiled without scalapack support.
  Defaulting to 'lapack_fast' instead (serial solution, time will not improve with more CPUs).
  Will not use alltoall communication since running on < 1024 CPUs.
  Threshold for basis singularities not set.
  Default threshold for basis singularities: 0.1000E-04
  partition_type (choice of integration weights) for integrals was not specified.
  | Using a version of the partition function of Stratmann and coworkers ('stratmann_smoother').
  | At each grid point, the set of atoms used to build the partition table is smoothly restricted to
  | only those atoms whose free-atom density would be non-zero at that grid point.
  Partitioning for Hartree potential was not defined. Using partition_type for integrals.
  | Adjusted default value of keyword multip_moments_threshold to:       0.10000000E-11
  | This value may affect high angular momentum components of the Hartree potential in periodic systems.
  Spin handling was not defined in control.in. Defaulting to unpolarized case.
  Threshold for auxiliary basis singularities not set.
  Default threshold for auxiliary basis singularities: 0.1000E-04
  No q(lm)/r^(l+1) cutoff set for long-range Hartree potential.
  | Using default value of  0.100000E-09 .
  | Verify using the multipole_threshold keyword.
  Defaulting to new monopole extrapolation.
  Density update method: automatic selection selected.
  Default to 1D ("use_logsbt") integrations for auxiliary 2-center integrals.
  Default onset of logarithmic r-grid for SBT is-38.000000000000
  Default onset of logarithmic k-grid for SBT is-25.000000000000
  Default range of logarithmic r- and k-grid for SBT is 45.000000000000
  Default number of logarithmic r- and k-grid for SBT is  4096
------------------------------------------------------------


------------------------------------------------------------
          Reading geometry description geometry.in.
------------------------------------------------------------
  Input structure read successfully.
  The structure contains        2 atoms,  and a total of          2.000 electrons.

  Input geometry:
  | No unit cell requested.
  | Atomic structure:
  |       Atom                x [A]            y [A]            z [A]
  |    1: Species H              0.000000         0.000000         0.000000
  |    2: Species H              0.000000         0.000000         6.600000
  |

  | The smallest distance between any two atoms is         6.60000000 AA.
  |
  | The first atom of this pair is atom number                      1 .
  | The second atom of this pair is atom number                     2 .

  Number of empty states per atom not set in control.in .
  | Since you are using a method that relies on the unoccupied spectrum
  | (MP2,GW,RPA et al.), will use the full Hamiltonian size (see below)
  | as the max. possible number of states (occupied plus empty).

  Structure-dependent array size parameters: 
  | Maximum number of distinct radial functions  :       11
  | Maximum number of basis functions            :       62
  | Number of Kohn-Sham states (occupied + empty):       62
------------------------------------------------------------

------------------------------------------------------------
          Preparing all fixed parts of the calculation.
------------------------------------------------------------
  Determining machine precision:
    2.225073858507201E-308
  Setting up grids for atomic and cluster calculations.

  Creating wave function, potential, and density for free atoms.

  Species: H

  List of occupied orbitals and eigenvalues:
    n    l              occ      energy [Ha]    energy [eV]
    1    0           1.0000        -0.233457        -6.3527

  Creating fixed part of basis set: Ionic, confined, hydrogenic.
 
  H                    hydrogenic:
 
  List of hydrogenic basis orbitals: 
    n    l      effective z      eigenvalue [eV]  inner max. [A]     outer max. [A]     outer radius [A]   
    1    0         1.156555       -18.1992           0.460320           0.460320           5.243229
    1    0         1.686845       -38.7143           0.315118           0.315118           4.932336
    1    0         2.460277       -82.3547           0.215718           0.215718           3.815562
    2    1         2.921459       -29.0309           0.723605           0.723605           5.243229
    2    1         4.145018       -58.4405           0.507614           0.507614           4.813203
    2    1         5.881026      -117.6432           0.360475           0.360475           3.678162
    3    2         6.414469       -62.2013           0.741515           0.741515           4.993004
    3    2         7.675365       -89.0587           0.617279           0.617279           4.583499
    4    3        10.808700       -99.3454           0.778676           0.778676           4.696947
    1    0         3.588333      -175.1887           0.147673           0.147673           2.644120
 

  Adding cutoff potential to free-atom effective potential.
  Creating atomic-like basis functions for current effective potential.

  Species H                   :

  List of atomic basis orbitals and eigenvalues:
    n    l      energy [Ha]    energy [eV]    outer radius [A]
    1    0        -0.233418        -6.3516       5.373006

  Assembling full basis from fixed parts.
  | Species H :   atomic orbital   1 s accepted.
  | Species H :    hydro orbital   1 s accepted.
  | Species H :    hydro orbital   1 s accepted.
  | Species H :    hydro orbital   1 s accepted.
  | Species H :    hydro orbital   1 s accepted.
  | Species H :    hydro orbital   2 p accepted.
  | Species H :    hydro orbital   2 p accepted.
  | Species H :    hydro orbital   2 p accepted.
  | Species H :    hydro orbital   3 d accepted.
  | Species H :    hydro orbital   3 d accepted.
  | Species H :    hydro orbital   4 f accepted.
 
  Basis size parameters after reduction:
  | Total number of radial functions:       11
  | Total number of basis functions :       62
 
  Testing on-site integration grid accuracy.
  |  Species  Function  <phi|h_atom|phi> (log., in eV)  <phi|h_atom|phi> (rad., in eV)
           1        1                 -6.3519216712                 -6.3519215989
           1        2                  8.4716038567                  8.4716058028
           1        3                 58.3749927434                 58.3750109815
           1        4                178.9024737125                178.9026031671
           1        5                456.3642310330                456.3649721232
           1        6                 16.2415699263                 16.2415699338
           1        7                 68.2932618880                 68.2932619123
           1        8                188.3801588017                188.3801587562
           1        9                 49.9849006789                 49.9849006869
           1       10                114.3821731125                114.3821730675
           1       11                 88.0899419283                 88.0899419237

  Preparing densities etc. for the partition functions (integrals / Hartree potential).

  Preparations completed.
  max(cpu_time)          :      0.176 s.
  Wall clock time (cpu1) :      0.189 s.
------------------------------------------------------------

------------------------------------------------------------
          Begin self-consistency loop: Initialization.

          Date     :  20140812, Time     :  112808.090
------------------------------------------------------------

  Initializing index lists of integration centers etc. from given atomic structure:
  | Number of centers in hartree potential         :         2
  | Number of centers in hartree multipole         :         2
  | Number of centers in electron density summation:         2
  | Number of centers in basis integrals           :         2
  | Number of centers in integrals                 :         2
  Partitioning the integration grid into batches with parallel hashing+maxmin method.
  | Number of batches:     1202
  | Maximal batch size:     150
  | Minimal batch size:      65
  | Average batch size:     120.136
  | Standard deviation of batch sizes:      32.596

  Integration load balanced across     4 MPI tasks.
  Work distribution over tasks is as follows:
  Task     0 has      36102 integration points.
  Task     1 has      36130 integration points.
  Task     2 has      36100 integration points.
  Task     3 has      36072 integration points.
  Initializing partition tables, free-atom densities, potentials, etc. across the integration grid (initialize_grid_storage).
  | Original list of interatomic distances with           2 x          2 entries is created.
  | Net number of integration points:   144404
  | of which are non-zero points    :   143560
  Obtaining max. number of non-zero basis functions in each batch (get_n_compute_maxes).
  | Maximal number of non-zero basis functions:       62 in task     0
  | Maximal number of non-zero basis functions:       62 in task     1
  | Maximal number of non-zero basis functions:       62 in task     2
  | Maximal number of non-zero basis functions:       62 in task     3
  Selecting the method for density update.
  Loop over occupied states selected for charge density update.
  Integrating Hamiltonian matrix: batch-based integration.
  Time summed over all CPUs for integration: real work        0.813 s, elapsed        0.826 s
  Integrating overlap matrix.
  Time summed over all CPUs for integration: real work        0.430 s, elapsed        0.438 s

  Updating Kohn-Sham eigenvalues, eigenvectors, occupation numbers, and Fermi level.
  Solving generalized eigenproblem
  Updating Kohn-Sham eigenvalues and eigenfunctions.
  Transforming overlap matrix and checking for singularities.
  Overlap matrix is nonsingular:
  | Lowest eigenvalue:  0.962306E+00
  Solving real generalised eigenvalue problem by standard LAPACK (fast)
  Determining occupation numbers for Kohn-Sham eigenstates.
  | Chemical potential (Fermi level) in eV                 : -.63519665E+01
  | Error in electron count due to remaining E_F inaccuracy: 0.00000000E+00
  | Maximum occupation number of highest empty state:  0.00E+00

  Writing Kohn-Sham eigenvalues.

  State    Occupation    Eigenvalue [Ha]    Eigenvalue [eV]
      1       2.00000          -0.233517           -6.35433
      2       0.00000          -0.233343           -6.34960
      3       0.00000           0.094423            2.56939
      4       0.00000           0.106052            2.88581
      5       0.00000           0.244983            6.66633
      6       0.00000           0.245292            6.67474
      7       0.00000           0.245292            6.67474
      8       0.00000           0.245336            6.67592
      9       0.00000           0.245336            6.67592
     10       0.00000           0.245698            6.68578
     11       0.00000           0.768193           20.90359
     12       0.00000           0.788045           21.44379
     13       0.00000           1.022687           27.82872
     14       0.00000           1.022704           27.82919
     15       0.00000           1.022704           27.82919
     16       0.00000           1.022708           27.82930
     17       0.00000           1.022708           27.82930
     18       0.00000           1.022708           27.82931
     19       0.00000           1.022708           27.82931
     20       0.00000           1.022712           27.82942
     21       0.00000           1.022712           27.82942
     22       0.00000           1.022751           27.83047
     23       0.00000           1.587768           43.20536
     24       0.00000           1.588670           43.22990
     25       0.00000           1.588670           43.22990
     26       0.00000           1.588792           43.23322
     27       0.00000           1.588792           43.23322
     28       0.00000           1.589812           43.26099
     29       0.00000           3.237244           88.08990
     30       0.00000           3.237246           88.08994
     31       0.00000           3.237246           88.08994
     32       0.00000           3.237246           88.08994
     33       0.00000           3.237246           88.08994
     34       0.00000           3.237246           88.08994
     35       0.00000           3.237246           88.08994
     36       0.00000           3.237246           88.08994
     37       0.00000           3.237246           88.08994
     38       0.00000           3.237246           88.08994
     39       0.00000           3.237246           88.08994
     40       0.00000           3.237246           88.08995
     41       0.00000           3.237246           88.08995
     42       0.00000           3.237246           88.08995
     43       0.00000           3.508402           95.46846
     44       0.00000           3.543270           96.41729
     45       0.00000           5.017589          136.53555
     46       0.00000           5.017658          136.53741
     47       0.00000           5.017658          136.53741
     48       0.00000           5.017670          136.53775
     49       0.00000           5.017670          136.53775
     50       0.00000           5.017671          136.53778
     51       0.00000           5.017671          136.53778
     52       0.00000           5.017684          136.53812
     53       0.00000           5.017684          136.53812
     54       0.00000           5.017783          136.54083
     55       0.00000           8.192873          222.93942
     56       0.00000           8.195240          223.00384
     57       0.00000           8.195240          223.00384
     58       0.00000           8.195553          223.01234
     59       0.00000           8.195553          223.01234
     60       0.00000           8.198202          223.08442
     61       0.00000          21.341368          580.72818
     62       0.00000          21.461655          584.00136

  Highest occupied state (VBM) at     -6.35433399 eV
  | Occupation number:      2.00000000

  Lowest unoccupied state (CBM) at    -6.34959895 eV
  | Occupation number:      0.00000000

  Overall HOMO-LUMO gap:      0.00473504 eV.
  Calculating total energy contributions from superposition of free atom densities.

  Total energy components:
  | Sum of eigenvalues            :          -0.46703496 Ha         -12.70866798 eV
  | XC energy correction          :          -0.46495807 Ha         -12.65215271 eV
  | XC potential correction       :           0.60607521 Ha          16.49214566 eV
  | Free-atom electrostatic energy:          -0.56553591 Ha         -15.38901518 eV
  | Hartree energy correction     :           0.00000000 Ha           0.00000000 eV
  | Entropy correction            :           0.00000000 Ha           0.00000000 eV
  | ---------------------------
  | Total energy                  :          -0.89145373 Ha         -24.25769021 eV
  | Total energy, T -> 0          :          -0.89145373 Ha         -24.25769021 eV  <-- do not rely on this value for anything but (periodic) metals
  | Electronic free energy        :          -0.89145373 Ha         -24.25769021 eV

  Derived energy quantities:
  | Kinetic energy                :           0.84960900 Ha          23.11903724 eV
  | Electrostatic energy          :          -1.27610467 Ha         -34.72457475 eV
  | Energy correction for multipole
  | error in Hartree potential    :           0.00000000 Ha           0.00000000 eV
  | Sum of eigenvalues per atom                           :          -6.35433399 eV
  | Total energy (T->0) per atom                          :         -12.12884511 eV  <-- do not rely on this value for anything but (periodic) metals
  | Electronic free energy per atom                       :         -12.12884511 eV
 
 --------------------------------------------
  Constructing auxiliary basis (full product) ...
 
  Product basis:
  | charge radius: extent of product basis function
  | field radius: extent of its Coulomb potential
  | Species   l  charge radius    field radius  multipol momen
  |    H      5     4.813203 A      4.813203 A  2.676041E-15 a.u.
  |    H      4     4.932336 A      4.932336 A  2.417679E-16 a.u.
  |    H      3     5.054418 A      5.054418 A  ************ a.u.
  |    H      4     5.054418 A      5.054418 A  ************ a.u.
  |    H      3     5.116587 A      5.116587 A  1.642688E-15 a.u.
  |    H      2     5.179521 A      5.179521 A  6.126280E-16 a.u.
  |    H      3     5.179521 A      5.179521 A  ************ a.u.
  |    H      2     5.243229 A      5.243229 A  1.485543E-16 a.u.
  |    H      2     5.243229 A      5.243229 A  1.683301E-16 a.u.
  |    H      2     5.243229 A      5.243229 A  ************ a.u.
  |    H      3     5.243229 A      5.243229 A  ************ a.u.
  |    H      1     5.307721 A      5.307721 A  2.416866E-16 a.u.
  |    H      1     5.307721 A      5.307721 A  1.291012E-16 a.u.
  |    H      2     5.307721 A      5.307721 A  7.871382E-16 a.u.
  |    H      0     5.373006 A      5.373006 A  9.519909E-17 a.u.
  |    H      1     5.373006 A      5.373006 A  2.334090E-16 a.u.
  |    H      1     5.373006 A      5.373006 A  ************ a.u.
  |    H      1     5.373006 A      5.373006 A  ************ a.u.
  |    H      1     5.373006 A      5.373006 A  1.823473E-16 a.u.
  |    H      0     5.373006 A      5.439094 A  ************ a.u.
  |    H      0     5.439094 A      5.439094 A  ************ a.u.
  |    H      0     5.439094 A      5.505995 A  9.305319E-17 a.u.
  |    H      0     5.439094 A      5.505995 A  4.082184E-17 a.u.
  |    H      0     5.439094 A      5.505995 A  3.169850E-16 a.u.
  |    H      0     5.439094 A      5.505995 A  2.711689E-16 a.u.
  |    H      5     4.872405 A  1.325110E+02 A           19.619780 a.u.
  |    H      4     5.054418 A  3.771796E+02 A           14.639479 a.u.
  |    H      3     5.243229 A  1.836978E+03 A           11.555842 a.u.
  |    H      2     5.307721 A  2.095310E+04 A            4.940052 a.u.
  |    H      1     5.373006 A  2.512347E+06 A            1.793689 a.u.
  |    H      0     5.439094 A  4.604132E+12 A            0.692368 a.u.

  | Shrink_full_auxil_basis : there are       31  radial auxiliary wave functions
                            accepted and      90 rejected.
  | Shrink_full_auxil_basis : there are totally     286 partial auxiliary wave functions.
 
  | Number of product basis functions per thread :    72
  | Minimal requirement for computer memories :           0.005 Gbs
 
  Basis pair condensation :      1953  -->       1953
 
 ----------------------------------------------------
  Integrating the 3-basis-function Coulomb matrix ...
  | i_atom:            1
  | i_atom:            2
  Integrating the Coulomb interaction matrix for auxiliary basis functions (by atoms)

  SBT integration errors (all should be 'small'):
  large logFT aliasing -> increase N/lnrange
  large SBT aliasing -> decrease lnk0 & increase lnk0+lnrange
  large SBT ringing -> decrease lnr0 & increase lnr0+lnrange
  |            El't  L: logFT-al.   small-k   large-k   small-r   large-r
  Atomic logSBT for 2-center Coulomb matrix    :  max(cpu_time)    wall_clock(cpu1)
  | Multiplication with kernel                 :        0.016 s           0.010 s
  | Main matrix multiplication                 :        0.072 s           0.042 s
  | Analytic angular integration               :        0.004 s           0.002 s
  | Kernel construction                        :        0.004 s           0.002 s
  | Overall 2-center overlap time              :        0.100 s           0.062 s

  Difference of Coulomb matrix to its transposed:  9.9638E-17
  Task     0: Eigenvalues of the Coulomb matrix range from    1.5614E+00 to    4.3847E-01.
  Task     0: Using      286   eigenvalues out of rank      286   Coulomb matrix (auxiliary basis).
 
  Multiplying V^-0.5 x ovlp_3fn (1d-scalapack)

  Initialize hartree_potential_storage
  Max. number of atoms included in rho_multipole:            2

  End scf initialization - timings             :  max(cpu_time)    wall_clock(cpu1)
  | Time for scf. initialization               :       17.369 s          17.387 s
  | Boundary condition initialization          :        0.000 s           0.000 s
  | Integration                                :        0.316 s           0.317 s
  | Solution of K.-S. eqns.                    :        0.004 s           0.004 s
  | Grid partitioning                          :        0.224 s           0.223 s
  | Preloading free-atom quantities on grid    :        0.068 s           0.067 s
  | Free-atom superposition energy             :        0.036 s           0.036 s
  | Total energy evaluation                    :        0.000 s           0.000 s
  | Product basis setup: Total time            :       16.649 s          16.667 s
  | Product basis: | 3-center integrations     :       16.173 s          16.186 s
  | Product basis: | 2-center integrations     :        0.256 s           0.257 s
  | Product basis: | 2-center linear algebra   :        0.092 s           0.089 s
  | Product basis: | 3-center x 2-center       :        0.028 s           0.026 s
------------------------------------------------------------

------------------------------------------------------------
          Begin self-consistency iteration #    1

  Date     :  20140812, Time     :  112825.477
------------------------------------------------------------
  Evaluating new KS density.
  Integration grid: deviation in total charge (<rho> - N_e) =  -8.748557E-14
  Pulay mixing of updated and previous charge densities.

  Evaluating partitioned Hartree potential by multipole expansion.
  | Analytical far-field extrapolation by fixed multipoles:
  | Hartree multipole sum: apparent total charge =  -0.101697E-06
  Summing up the Hartree potential.
  Time summed over all CPUs for potential: real work        1.037 s, elapsed        1.043 s
  | RMS charge density error from multipole expansion :   0.222105E-05

  Integrating Hamiltonian matrix: batch-based integration.
  Time summed over all CPUs for integration: real work        0.693 s, elapsed        0.712 s
  Evaluating the exchange matrix ... 

  Updating Kohn-Sham eigenvalues, eigenvectors, occupation numbers, and Fermi level.
  Solving generalized eigenproblem
  Updating Kohn-Sham eigenvalues and eigenfunctions.
  Solving real generalised eigenvalue problem by standard LAPACK (fast)
  Determining occupation numbers for Kohn-Sham eigenstates.
  | Chemical potential (Fermi level) in eV                 : -.58774569E+01
  | Error in electron count due to remaining E_F inaccuracy: 0.00000000E+00
  | Maximum occupation number of highest empty state:  0.00E+00

  Writing Kohn-Sham eigenvalues.

  State    Occupation    Eigenvalue [Ha]    Eigenvalue [eV]
      1       2.00000          -0.256059           -6.96771
      2       0.00000          -0.175926           -4.78720
      3       0.00000           0.183462            4.99224
      4       0.00000           0.198161            5.39224
      5       0.00000           0.398170           10.83475
      6       0.00000           0.398839           10.85296
      7       0.00000           0.398839           10.85296
      8       0.00000           0.399489           10.87064
      9       0.00000           0.399489           10.87064
     10       0.00000           0.400241           10.89110
     11       0.00000           0.973732           26.49660
     12       0.00000           0.994061           27.04977
     13       0.00000           1.220406           33.20893
     14       0.00000           1.220434           33.20971
     15       0.00000           1.220434           33.20971
     16       0.00000           1.220452           33.21019
     17       0.00000           1.220452           33.21019
     18       0.00000           1.220463           33.21050
     19       0.00000           1.220463           33.21050
     20       0.00000           1.220488           33.21116
     21       0.00000           1.220488           33.21116
     22       0.00000           1.220543           33.21266
     23       0.00000           1.856468           50.51708
     24       0.00000           1.857409           50.54267
     25       0.00000           1.857409           50.54267
     26       0.00000           1.857538           50.54618
     27       0.00000           1.857538           50.54618
     28       0.00000           1.858615           50.57550
     29       0.00000           3.501919           95.29207
     30       0.00000           3.501919           95.29207
     31       0.00000           3.501919           95.29208
     32       0.00000           3.501919           95.29208
     33       0.00000           3.501921           95.29213
     34       0.00000           3.501921           95.29213
     35       0.00000           3.501921           95.29213
     36       0.00000           3.501922           95.29215
     37       0.00000           3.501922           95.29216
     38       0.00000           3.501922           95.29216
     39       0.00000           3.501922           95.29216
     40       0.00000           3.501925           95.29222
     41       0.00000           3.501925           95.29222
     42       0.00000           3.501926           95.29226
     43       0.00000           3.866569          105.21470
     44       0.00000           3.901867          106.17520
     45       0.00000           5.359634          145.84306
     46       0.00000           5.359704          145.84497
     47       0.00000           5.359704          145.84497
     48       0.00000           5.359716          145.84529
     49       0.00000           5.359716          145.84529
     50       0.00000           5.359718          145.84534
     51       0.00000           5.359718          145.84534
     52       0.00000           5.359734          145.84579
     53       0.00000           5.359734          145.84579
     54       0.00000           5.359839          145.84863
     55       0.00000           8.616636          234.47061
     56       0.00000           8.619041          234.53604
     57       0.00000           8.619041          234.53604
     58       0.00000           8.619366          234.54488
     59       0.00000           8.619366          234.54488
     60       0.00000           8.622065          234.61834
     61       0.00000          21.854339          594.68683
     62       0.00000          21.974917          597.96793

  Highest occupied state (VBM) at     -6.96771288 eV
  | Occupation number:      2.00000000

  Lowest unoccupied state (CBM) at    -4.78720099 eV
  | Occupation number:      0.00000000

  Overall HOMO-LUMO gap:      2.18051189 eV.

  Total energy components:
  | Sum of eigenvalues            :          -0.51211748 Ha         -13.93542576 eV
  | XC energy correction          :           0.32272088 Ha           8.78168201 eV
  | XC potential correction       :           0.00000000 Ha           0.00000000 eV
  | Free-atom electrostatic energy:          -0.56553591 Ha         -15.38901518 eV
  | Hartree energy correction     :           0.00016347 Ha           0.00444836 eV
  | Entropy correction            :           0.00000000 Ha           0.00000000 eV
  | ---------------------------
  | Total energy                  :          -0.75476904 Ha         -20.53831057 eV
  | Total energy, T -> 0          :          -0.75476904 Ha         -20.53831057 eV  <-- do not rely on this value for anything but (periodic) metals
  | Electronic free energy        :          -0.75476904 Ha         -20.53831057 eV

  Derived energy quantities:
  | Kinetic energy                :           0.84378428 Ha          22.96053835 eV
  | Electrostatic energy          :          -1.27583243 Ha         -34.71716690 eV
  | Energy correction for multipole
  | error in Hartree potential    :           0.00000001 Ha           0.00000031 eV
  | Sum of eigenvalues per atom                           :          -6.96771288 eV
  | Total energy (T->0) per atom                          :         -10.26915529 eV  <-- do not rely on this value for anything but (periodic) metals
  | Electronic free energy per atom                       :         -10.26915529 eV

  Self-consistency convergence accuracy:
  | Change of charge density      : 0.1833E-03
  | Change of sum of eigenvalues  : -.1227E+01 eV
  | Change of total energy        : 0.3719E+01 eV

  End self-consistency iteration #     1       :  max(cpu_time)    wall_clock(cpu1)
  | Time for this iteration                    :        0.628 s           0.627 s
  | Charge density update                      :        0.096 s           0.093 s
  | Density mixing                             :        0.004 s           0.003 s
  | Hartree multipole update                   :        0.068 s           0.069 s
  | Hartree multipole summation                :        0.264 s           0.261 s
  | Integration                                :        0.180 s           0.179 s
  | Fock matrix evaluation                     :        0.020 s           0.018 s
  | Solution of K.-S. eqns.                    :        0.004 s           0.002 s
  | Total energy evaluation                    :        0.000 s           0.000 s
------------------------------------------------------------

------------------------------------------------------------
          Begin self-consistency iteration #    2

  Date     :  20140812, Time     :  112826.104
------------------------------------------------------------
  Evaluating new KS density.
  Integration grid: deviation in total charge (<rho> - N_e) =  -4.440892E-16
  Pulay mixing of updated and previous charge densities.

  Evaluating partitioned Hartree potential by multipole expansion.
  | Analytical far-field extrapolation by fixed multipoles:
  | Hartree multipole sum: apparent total charge =  -0.101524E-06
  Summing up the Hartree potential.
  Time summed over all CPUs for potential: real work        1.042 s, elapsed        1.059 s
  | RMS charge density error from multipole expansion :   0.220574E-05

  Integrating Hamiltonian matrix: batch-based integration.
  Time summed over all CPUs for integration: real work        0.692 s, elapsed        0.698 s
  Evaluating the exchange matrix ... 

  Updating Kohn-Sham eigenvalues, eigenvectors, occupation numbers, and Fermi level.
  Solving generalized eigenproblem
  Updating Kohn-Sham eigenvalues and eigenfunctions.
  Solving real generalised eigenvalue problem by standard LAPACK (fast)
  Determining occupation numbers for Kohn-Sham eigenstates.
  | Chemical potential (Fermi level) in eV                 : -.58765096E+01
  | Error in electron count due to remaining E_F inaccuracy: 0.00000000E+00
  | Maximum occupation number of highest empty state:  0.00E+00

  Highest occupied state (VBM) at     -6.96674618 eV
  | Occupation number:      2.00000000

  Lowest unoccupied state (CBM) at    -4.78627307 eV
  | Occupation number:      0.00000000

  Overall HOMO-LUMO gap:      2.18047310 eV.

  Total energy components:
  | Sum of eigenvalues            :          -0.51204643 Ha         -13.93349235 eV
  | XC energy correction          :           0.31060501 Ha           8.45199228 eV
  | XC potential correction       :           0.00000000 Ha           0.00000000 eV
  | Free-atom electrostatic energy:          -0.56553591 Ha         -15.38901518 eV
  | Hartree energy correction     :           0.00002057 Ha           0.00055970 eV
  | Entropy correction            :           0.00000000 Ha           0.00000000 eV
  | ---------------------------
  | Total energy                  :          -0.76695677 Ha         -20.86995555 eV
  | Total energy, T -> 0          :          -0.76695677 Ha         -20.86995555 eV  <-- do not rely on this value for anything but (periodic) metals
  | Electronic free energy        :          -0.76695677 Ha         -20.86995555 eV

  Derived energy quantities:
  | Kinetic energy                :           0.81975292 Ha          22.30661186 eV
  | Electrostatic energy          :          -1.27610468 Ha         -34.72457513 eV
  | Energy correction for multipole
  | error in Hartree potential    :           0.00000001 Ha           0.00000031 eV
  | Sum of eigenvalues per atom                           :          -6.96674618 eV
  | Total energy (T->0) per atom                          :         -10.43497777 eV  <-- do not rely on this value for anything but (periodic) metals
  | Electronic free energy per atom                       :         -10.43497777 eV

  Self-consistency convergence accuracy:
  | Change of charge density      : 0.2935E-01
  | Change of sum of eigenvalues  : 0.1933E-02 eV
  | Change of total energy        : -.3316E+00 eV

  End self-consistency iteration #     2       :  max(cpu_time)    wall_clock(cpu1)
  | Time for this iteration                    :        0.616 s           0.616 s
  | Charge density update                      :        0.092 s           0.090 s
  | Density mixing                             :        0.004 s           0.004 s
  | Hartree multipole update                   :        0.068 s           0.068 s
  | Hartree multipole summation                :        0.268 s           0.266 s
  | Integration                                :        0.176 s           0.174 s
  | Fock matrix evaluation                     :        0.012 s           0.012 s
  | Solution of K.-S. eqns.                    :        0.000 s           0.001 s
  | Total energy evaluation                    :        0.000 s           0.000 s
------------------------------------------------------------

------------------------------------------------------------
          Begin self-consistency iteration #    3

  Date     :  20140812, Time     :  112826.721
------------------------------------------------------------
  Evaluating new KS density.
  Integration grid: deviation in total charge (<rho> - N_e) =  -3.996803E-15
  Pulay mixing of updated and previous charge densities.

  Evaluating partitioned Hartree potential by multipole expansion.
  | Analytical far-field extrapolation by fixed multipoles:
  | Hartree multipole sum: apparent total charge =  -0.125756E-06
  Summing up the Hartree potential.
  Time summed over all CPUs for potential: real work        1.041 s, elapsed        1.046 s
  | RMS charge density error from multipole expansion :   0.194612E-05

  Integrating Hamiltonian matrix: batch-based integration.
  Time summed over all CPUs for integration: real work        0.695 s, elapsed        0.705 s
  Evaluating the exchange matrix ... 

  Updating Kohn-Sham eigenvalues, eigenvectors, occupation numbers, and Fermi level.
  Solving generalized eigenproblem
  Updating Kohn-Sham eigenvalues and eigenfunctions.
  Solving real generalised eigenvalue problem by standard LAPACK (fast)
  Determining occupation numbers for Kohn-Sham eigenstates.
  | Chemical potential (Fermi level) in eV                 : -.58581405E+01
  | Error in electron count due to remaining E_F inaccuracy: 0.00000000E+00
  | Maximum occupation number of highest empty state:  0.00E+00

  Highest occupied state (VBM) at     -6.94802761 eV
  | Occupation number:      2.00000000

  Lowest unoccupied state (CBM) at    -4.76825346 eV
  | Occupation number:      0.00000000

  Overall HOMO-LUMO gap:      2.17977416 eV.

  Total energy components:
  | Sum of eigenvalues            :          -0.51067064 Ha         -13.89605523 eV
  | XC energy correction          :           0.31119905 Ha           8.46815695 eV
  | XC potential correction       :           0.00000000 Ha           0.00000000 eV
  | Free-atom electrostatic energy:          -0.56553591 Ha         -15.38901518 eV
  | Hartree energy correction     :          -0.00277488 Ha          -0.07550836 eV
  | Entropy correction            :           0.00000000 Ha           0.00000000 eV
  | ---------------------------
  | Total energy                  :          -0.76778239 Ha         -20.89242182 eV
  | Total energy, T -> 0          :          -0.76778239 Ha         -20.89242182 eV  <-- do not rely on this value for anything but (periodic) metals
  | Electronic free energy        :          -0.76778239 Ha         -20.89242182 eV

  Derived energy quantities:
  | Kinetic energy                :           0.82469936 Ha          22.44121143 eV
  | Electrostatic energy          :          -1.28128270 Ha         -34.86547629 eV
  | Energy correction for multipole
  | error in Hartree potential    :           0.00000001 Ha           0.00000017 eV
  | Sum of eigenvalues per atom                           :          -6.94802761 eV
  | Total energy (T->0) per atom                          :         -10.44621091 eV  <-- do not rely on this value for anything but (periodic) metals
  | Electronic free energy per atom                       :         -10.44621091 eV

  Self-consistency convergence accuracy:
  | Change of charge density      : 0.2944E-01
  | Change of sum of eigenvalues  : 0.3744E-01 eV
  | Change of total energy        : -.2247E-01 eV

  End self-consistency iteration #     3       :  max(cpu_time)    wall_clock(cpu1)
  | Time for this iteration                    :        0.616 s           0.616 s
  | Charge density update                      :        0.092 s           0.089 s
  | Density mixing                             :        0.008 s           0.008 s
  | Hartree multipole update                   :        0.064 s           0.065 s
  | Hartree multipole summation                :        0.264 s           0.263 s
  | Integration                                :        0.176 s           0.176 s
  | Fock matrix evaluation                     :        0.012 s           0.012 s
  | Solution of K.-S. eqns.                    :        0.004 s           0.002 s
  | Total energy evaluation                    :        0.000 s           0.001 s
------------------------------------------------------------

------------------------------------------------------------
          Begin self-consistency iteration #    4

  Date     :  20140812, Time     :  112827.337
------------------------------------------------------------
  Evaluating new KS density.
  Integration grid: deviation in total charge (<rho> - N_e) =  -2.220446E-15
  Pulay mixing of updated and previous charge densities.

  Evaluating partitioned Hartree potential by multipole expansion.
  | Analytical far-field extrapolation by fixed multipoles:
  | Hartree multipole sum: apparent total charge =  -0.119242E-06
  Summing up the Hartree potential.
  Time summed over all CPUs for potential: real work        1.045 s, elapsed        1.049 s
  | RMS charge density error from multipole expansion :   0.120621E-04

  Integrating Hamiltonian matrix: batch-based integration.
  Time summed over all CPUs for integration: real work        0.704 s, elapsed        0.723 s
  Evaluating the exchange matrix ... 

  Updating Kohn-Sham eigenvalues, eigenvectors, occupation numbers, and Fermi level.
  Solving generalized eigenproblem
  Updating Kohn-Sham eigenvalues and eigenfunctions.
  Solving real generalised eigenvalue problem by standard LAPACK (fast)
  Determining occupation numbers for Kohn-Sham eigenstates.
  | Chemical potential (Fermi level) in eV                 : -.62628076E+01
  | Error in electron count due to remaining E_F inaccuracy: 0.00000000E+00
  | Maximum occupation number of highest empty state:  0.00E+00

  Highest occupied state (VBM) at     -7.36183066 eV
  | Occupation number:      2.00000000

  Lowest unoccupied state (CBM) at    -5.16378455 eV
  | Occupation number:      0.00000000

  Overall HOMO-LUMO gap:      2.19804611 eV.

  Total energy components:
  | Sum of eigenvalues            :          -0.54108461 Ha         -14.72366132 eV
  | XC energy correction          :           0.29826124 Ha           8.11610116 eV
  | XC potential correction       :           0.00000000 Ha           0.00000000 eV
  | Free-atom electrostatic energy:          -0.56553591 Ha         -15.38901518 eV
  | Hartree energy correction     :           0.05548997 Ha           1.50995883 eV
  | Entropy correction            :           0.00000000 Ha           0.00000000 eV
  | ---------------------------
  | Total energy                  :          -0.75286932 Ha         -20.48661652 eV
  | Total energy, T -> 0          :          -0.75286932 Ha         -20.48661652 eV  <-- do not rely on this value for anything but (periodic) metals
  | Electronic free energy        :          -0.75286932 Ha         -20.48661652 eV

  Derived energy quantities:
  | Kinetic energy                :           0.71186224 Ha          19.37075704 eV
  | Electrostatic energy          :          -1.16647032 Ha         -31.74127239 eV
  | Energy correction for multipole
  | error in Hartree potential    :           0.00000016 Ha           0.00000422 eV
  | Sum of eigenvalues per atom                           :          -7.36183066 eV
  | Total energy (T->0) per atom                          :         -10.24330826 eV  <-- do not rely on this value for anything but (periodic) metals
  | Electronic free energy per atom                       :         -10.24330826 eV

  Self-consistency convergence accuracy:
  | Change of charge density      : 0.3098E-01
  | Change of sum of eigenvalues  : -.8276E+00 eV
  | Change of total energy        : 0.4058E+00 eV

  End self-consistency iteration #     4       :  max(cpu_time)    wall_clock(cpu1)
  | Time for this iteration                    :        0.636 s           0.634 s
  | Charge density update                      :        0.096 s           0.094 s
  | Density mixing                             :        0.012 s           0.012 s
  | Hartree multipole update                   :        0.072 s           0.069 s
  | Hartree multipole summation                :        0.264 s           0.264 s
  | Integration                                :        0.184 s           0.181 s
  | Fock matrix evaluation                     :        0.012 s           0.012 s
  | Solution of K.-S. eqns.                    :        0.004 s           0.001 s
  | Total energy evaluation                    :        0.000 s           0.001 s
------------------------------------------------------------

------------------------------------------------------------
          Begin self-consistency iteration #    5

  Date     :  20140812, Time     :  112827.971
------------------------------------------------------------
  Evaluating new KS density.
  Integration grid: deviation in total charge (<rho> - N_e) =  -8.881784E-16
  Pulay mixing of updated and previous charge densities.

  Evaluating partitioned Hartree potential by multipole expansion.
  | Analytical far-field extrapolation by fixed multipoles:
  | Hartree multipole sum: apparent total charge =  -0.117351E-06
  Summing up the Hartree potential.
  Time summed over all CPUs for potential: real work        1.053 s, elapsed        1.076 s
  | RMS charge density error from multipole expansion :   0.114670E-04

  Integrating Hamiltonian matrix: batch-based integration.
  Time summed over all CPUs for integration: real work        0.693 s, elapsed        0.699 s
  Evaluating the exchange matrix ... 

  Updating Kohn-Sham eigenvalues, eigenvectors, occupation numbers, and Fermi level.
  Solving generalized eigenproblem
  Updating Kohn-Sham eigenvalues and eigenfunctions.
  Solving real generalised eigenvalue problem by standard LAPACK (fast)
  Determining occupation numbers for Kohn-Sham eigenstates.
  | Chemical potential (Fermi level) in eV                 : -.62394298E+01
  | Error in electron count due to remaining E_F inaccuracy: 0.00000000E+00
  | Maximum occupation number of highest empty state:  0.00E+00

  Highest occupied state (VBM) at     -7.33762247 eV
  | Occupation number:      2.00000000

  Lowest unoccupied state (CBM) at    -5.14123707 eV
  | Occupation number:      0.00000000

  Overall HOMO-LUMO gap:      2.19638541 eV.

  Total energy components:
  | Sum of eigenvalues            :          -0.53930534 Ha         -14.67524495 eV
  | XC energy correction          :           0.29667082 Ha           8.07282386 eV
  | XC potential correction       :           0.00000000 Ha           0.00000000 eV
  | Free-atom electrostatic energy:          -0.56553591 Ha         -15.38901518 eV
  | Hartree energy correction     :           0.05241445 Ha           1.42626984 eV
  | Entropy correction            :           0.00000000 Ha           0.00000000 eV
  | ---------------------------
  | Total energy                  :          -0.75575598 Ha         -20.56516643 eV
  | Total energy, T -> 0          :          -0.75575598 Ha         -20.56516643 eV  <-- do not rely on this value for anything but (periodic) metals
  | Electronic free energy        :          -0.75575598 Ha         -20.56516643 eV

  Derived energy quantities:
  | Kinetic energy                :           0.71394279 Ha          19.42737182 eV
  | Electrostatic energy          :          -1.17302794 Ha         -31.91971439 eV
  | Energy correction for multipole
  | error in Hartree potential    :           0.00000015 Ha           0.00000395 eV
  | Sum of eigenvalues per atom                           :          -7.33762247 eV
  | Total energy (T->0) per atom                          :         -10.28258322 eV  <-- do not rely on this value for anything but (periodic) metals
  | Electronic free energy per atom                       :         -10.28258322 eV

  Self-consistency convergence accuracy:
  | Change of charge density      : 0.2244E-02
  | Change of sum of eigenvalues  : 0.4842E-01 eV
  | Change of total energy        : -.7855E-01 eV

  End self-consistency iteration #     5       :  max(cpu_time)    wall_clock(cpu1)
  | Time for this iteration                    :        0.632 s           0.633 s
  | Charge density update                      :        0.092 s           0.089 s
  | Density mixing                             :        0.016 s           0.016 s
  | Hartree multipole update                   :        0.068 s           0.068 s
  | Hartree multipole summation                :        0.272 s           0.271 s
  | Integration                                :        0.176 s           0.175 s
  | Fock matrix evaluation                     :        0.012 s           0.012 s
  | Solution of K.-S. eqns.                    :        0.004 s           0.001 s
  | Total energy evaluation                    :        0.000 s           0.001 s
------------------------------------------------------------

------------------------------------------------------------
          Begin self-consistency iteration #    6

  Date     :  20140812, Time     :  112828.604
------------------------------------------------------------
  Evaluating new KS density.
  Integration grid: deviation in total charge (<rho> - N_e) =   3.996803E-15
  Pulay mixing of updated and previous charge densities.

  Evaluating partitioned Hartree potential by multipole expansion.
  | Analytical far-field extrapolation by fixed multipoles:
  | Hartree multipole sum: apparent total charge =  -0.117214E-06
  Summing up the Hartree potential.
  Time summed over all CPUs for potential: real work        1.037 s, elapsed        1.045 s
  | RMS charge density error from multipole expansion :   0.114344E-04

  Integrating Hamiltonian matrix: batch-based integration.
  Time summed over all CPUs for integration: real work        0.705 s, elapsed        0.712 s
  Evaluating the exchange matrix ... 

  Updating Kohn-Sham eigenvalues, eigenvectors, occupation numbers, and Fermi level.
  Solving generalized eigenproblem
  Updating Kohn-Sham eigenvalues and eigenfunctions.
  Solving real generalised eigenvalue problem by standard LAPACK (fast)
  Determining occupation numbers for Kohn-Sham eigenstates.
  | Chemical potential (Fermi level) in eV                 : -.62378821E+01
  | Error in electron count due to remaining E_F inaccuracy: 0.00000000E+00
  | Maximum occupation number of highest empty state:  0.00E+00

  Highest occupied state (VBM) at     -7.33600517 eV
  | Occupation number:      2.00000000

  Lowest unoccupied state (CBM) at    -5.13975897 eV
  | Occupation number:      0.00000000

  Overall HOMO-LUMO gap:      2.19624619 eV.

  Total energy components:
  | Sum of eigenvalues            :          -0.53918647 Ha         -14.67201033 eV
  | XC energy correction          :           0.29684747 Ha           8.07763064 eV
  | XC potential correction       :           0.00000000 Ha           0.00000000 eV
  | Free-atom electrostatic energy:          -0.56553591 Ha         -15.38901518 eV
  | Hartree energy correction     :           0.05221862 Ha           1.42094093 eV
  | Entropy correction            :           0.00000000 Ha           0.00000000 eV
  | ---------------------------
  | Total energy                  :          -0.75565629 Ha         -20.56245395 eV
  | Total energy, T -> 0          :          -0.75565629 Ha         -20.56245395 eV  <-- do not rely on this value for anything but (periodic) metals
  | Electronic free energy        :          -0.75565629 Ha         -20.56245395 eV

  Derived energy quantities:
  | Kinetic energy                :           0.71465727 Ha          19.44681382 eV
  | Electrostatic energy          :          -1.17346610 Ha         -31.93163713 eV
  | Energy correction for multipole
  | error in Hartree potential    :           0.00000014 Ha           0.00000394 eV
  | Sum of eigenvalues per atom                           :          -7.33600517 eV
  | Total energy (T->0) per atom                          :         -10.28122697 eV  <-- do not rely on this value for anything but (periodic) metals
  | Electronic free energy per atom                       :         -10.28122697 eV

  Self-consistency convergence accuracy:
  | Change of charge density      : 0.4092E-03
  | Change of sum of eigenvalues  : 0.3235E-02 eV
  | Change of total energy        : 0.2712E-02 eV

  End self-consistency iteration #     6       :  max(cpu_time)    wall_clock(cpu1)
  | Time for this iteration                    :        0.632 s           0.632 s
  | Charge density update                      :        0.088 s           0.088 s
  | Density mixing                             :        0.024 s           0.022 s
  | Hartree multipole update                   :        0.068 s           0.068 s
  | Hartree multipole summation                :        0.264 s           0.262 s
  | Integration                                :        0.180 s           0.178 s
  | Fock matrix evaluation                     :        0.012 s           0.012 s
  | Solution of K.-S. eqns.                    :        0.004 s           0.002 s
  | Total energy evaluation                    :        0.000 s           0.000 s
------------------------------------------------------------

------------------------------------------------------------
          Begin self-consistency iteration #    7

  Date     :  20140812, Time     :  112829.237
------------------------------------------------------------
  Evaluating new KS density.
  Integration grid: deviation in total charge (<rho> - N_e) =  -3.552714E-15
  Pulay mixing of updated and previous charge densities.

  Evaluating partitioned Hartree potential by multipole expansion.
  | Analytical far-field extrapolation by fixed multipoles:
  | Hartree multipole sum: apparent total charge =  -0.116835E-06
  Summing up the Hartree potential.
  Time summed over all CPUs for potential: real work        1.047 s, elapsed        1.057 s
  | RMS charge density error from multipole expansion :   0.113409E-04

  Integrating Hamiltonian matrix: batch-based integration.
  Time summed over all CPUs for integration: real work        0.697 s, elapsed        0.702 s
  Evaluating the exchange matrix ... 

  Updating Kohn-Sham eigenvalues, eigenvectors, occupation numbers, and Fermi level.
  Solving generalized eigenproblem
  Updating Kohn-Sham eigenvalues and eigenfunctions.
  Solving real generalised eigenvalue problem by standard LAPACK (fast)
  Determining occupation numbers for Kohn-Sham eigenstates.
  | Chemical potential (Fermi level) in eV                 : -.62344481E+01
  | Error in electron count due to remaining E_F inaccuracy: 0.00000000E+00
  | Maximum occupation number of highest empty state:  0.00E+00

  Highest occupied state (VBM) at     -7.33249306 eV
  | Occupation number:      2.00000000

  Lowest unoccupied state (CBM) at    -5.13640304 eV
  | Occupation number:      0.00000000

  Overall HOMO-LUMO gap:      2.19609002 eV.

  Total energy components:
  | Sum of eigenvalues            :          -0.53892833 Ha         -14.66498612 eV
  | XC energy correction          :           0.29696339 Ha           8.08078503 eV
  | XC potential correction       :           0.00000000 Ha           0.00000000 eV
  | Free-atom electrostatic energy:          -0.56553591 Ha         -15.38901518 eV
  | Hartree energy correction     :           0.05174662 Ha           1.40809728 eV
  | Entropy correction            :           0.00000000 Ha           0.00000000 eV
  | ---------------------------
  | Total energy                  :          -0.75575423 Ha         -20.56511899 eV
  | Total energy, T -> 0          :          -0.75575423 Ha         -20.56511899 eV  <-- do not rely on this value for anything but (periodic) metals
  | Electronic free energy        :          -0.75575423 Ha         -20.56511899 eV

  Derived energy quantities:
  | Kinetic energy                :           0.71568510 Ha          19.47478246 eV
  | Electrostatic energy          :          -1.17447594 Ha         -31.95911642 eV
  | Energy correction for multipole
  | error in Hartree potential    :           0.00000014 Ha           0.00000389 eV
  | Sum of eigenvalues per atom                           :          -7.33249306 eV
  | Total energy (T->0) per atom                          :         -10.28255950 eV  <-- do not rely on this value for anything but (periodic) metals
  | Electronic free energy per atom                       :         -10.28255950 eV

  Self-consistency convergence accuracy:
  | Change of charge density      : 0.2859E-03
  | Change of sum of eigenvalues  : 0.7024E-02 eV
  | Change of total energy        : -.2665E-02 eV

  End self-consistency iteration #     7       :  max(cpu_time)    wall_clock(cpu1)
  | Time for this iteration                    :        0.656 s           0.656 s
  | Charge density update                      :        0.100 s           0.098 s
  | Density mixing                             :        0.028 s           0.029 s
  | Hartree multipole update                   :        0.076 s           0.073 s
  | Hartree multipole summation                :        0.268 s           0.266 s
  | Integration                                :        0.176 s           0.176 s
  | Fock matrix evaluation                     :        0.016 s           0.012 s
  | Solution of K.-S. eqns.                    :        0.004 s           0.002 s
  | Total energy evaluation                    :        0.000 s           0.000 s
------------------------------------------------------------

------------------------------------------------------------
          Begin self-consistency iteration #    8

  Date     :  20140812, Time     :  112829.893
------------------------------------------------------------
  Evaluating new KS density.
  Integration grid: deviation in total charge (<rho> - N_e) =  -4.884981E-15
  Pulay mixing of updated and previous charge densities.

  Evaluating partitioned Hartree potential by multipole expansion.
  | Analytical far-field extrapolation by fixed multipoles:
  | Hartree multipole sum: apparent total charge =  -0.116835E-06
  Summing up the Hartree potential.
  Time summed over all CPUs for potential: real work        1.057 s, elapsed        1.086 s
  | RMS charge density error from multipole expansion :   0.113409E-04

  Integrating Hamiltonian matrix: batch-based integration.
  Time summed over all CPUs for integration: real work        0.710 s, elapsed        0.732 s
  Evaluating the exchange matrix ... 

  Updating Kohn-Sham eigenvalues, eigenvectors, occupation numbers, and Fermi level.
  Solving generalized eigenproblem
  Updating Kohn-Sham eigenvalues and eigenfunctions.
  Solving real generalised eigenvalue problem by standard LAPACK (fast)
  Determining occupation numbers for Kohn-Sham eigenstates.
  | Chemical potential (Fermi level) in eV                 : -.62344492E+01
  | Error in electron count due to remaining E_F inaccuracy: 0.00000000E+00
  | Maximum occupation number of highest empty state:  0.00E+00

  Highest occupied state (VBM) at     -7.33249448 eV
  | Occupation number:      2.00000000

  Lowest unoccupied state (CBM) at    -5.13640384 eV
  | Occupation number:      0.00000000

  Overall HOMO-LUMO gap:      2.19609064 eV.

  Total energy components:
  | Sum of eigenvalues            :          -0.53892844 Ha         -14.66498895 eV
  | XC energy correction          :           0.29698278 Ha           8.08131258 eV
  | XC potential correction       :           0.00000000 Ha           0.00000000 eV
  | Free-atom electrostatic energy:          -0.56553591 Ha         -15.38901518 eV
  | Hartree energy correction     :           0.05174665 Ha           1.40809791 eV
  | Entropy correction            :           0.00000000 Ha           0.00000000 eV
  | ---------------------------
  | Total energy                  :          -0.75573493 Ha         -20.56459364 eV
  | Total energy, T -> 0          :          -0.75573493 Ha         -20.56459364 eV  <-- do not rely on this value for anything but (periodic) metals
  | Electronic free energy        :          -0.75573493 Ha         -20.56459364 eV

  Derived energy quantities:
  | Kinetic energy                :           0.71572386 Ha          19.47583714 eV
  | Electrostatic energy          :          -1.17447601 Ha         -31.95911820 eV
  | Energy correction for multipole
  | error in Hartree potential    :           0.00000014 Ha           0.00000389 eV
  | Sum of eigenvalues per atom                           :          -7.33249448 eV
  | Total energy (T->0) per atom                          :         -10.28229682 eV  <-- do not rely on this value for anything but (periodic) metals
  | Electronic free energy per atom                       :         -10.28229682 eV

  Self-consistency convergence accuracy:
  | Change of charge density      : 0.1834E-06
  | Change of sum of eigenvalues  : -.2830E-05 eV
  | Change of total energy        : 0.5254E-03 eV

  End self-consistency iteration #     8       :  max(cpu_time)    wall_clock(cpu1)
  | Time for this iteration                    :        0.656 s           0.654 s
  | Charge density update                      :        0.092 s           0.090 s
  | Density mixing                             :        0.028 s           0.029 s
  | Hartree multipole update                   :        0.068 s           0.065 s
  | Hartree multipole summation                :        0.276 s           0.273 s
  | Integration                                :        0.184 s           0.183 s
  | Fock matrix evaluation                     :        0.012 s           0.012 s
  | Solution of K.-S. eqns.                    :        0.004 s           0.002 s
  | Total energy evaluation                    :        0.000 s           0.000 s
------------------------------------------------------------

------------------------------------------------------------
          Begin self-consistency iteration #    9

  Date     :  20140812, Time     :  112830.547
------------------------------------------------------------
  Evaluating new KS density.
  Integration grid: deviation in total charge (<rho> - N_e) =   4.884981E-15
  Pulay mixing of updated and previous charge densities.

  Evaluating partitioned Hartree potential by multipole expansion.
  | Analytical far-field extrapolation by fixed multipoles:
  | Hartree multipole sum: apparent total charge =  -0.116835E-06
  Summing up the Hartree potential.
  Time summed over all CPUs for potential: real work        1.045 s, elapsed        1.056 s
  | RMS charge density error from multipole expansion :   0.113410E-04

  Integrating Hamiltonian matrix: batch-based integration.
  Time summed over all CPUs for integration: real work        0.693 s, elapsed        0.706 s
  Evaluating the exchange matrix ... 

  Updating Kohn-Sham eigenvalues, eigenvectors, occupation numbers, and Fermi level.
  Solving generalized eigenproblem
  Updating Kohn-Sham eigenvalues and eigenfunctions.
  Solving real generalised eigenvalue problem by standard LAPACK (fast)
  Determining occupation numbers for Kohn-Sham eigenstates.
  | Chemical potential (Fermi level) in eV                 : -.62344540E+01
  | Error in electron count due to remaining E_F inaccuracy: 0.00000000E+00
  | Maximum occupation number of highest empty state:  0.00E+00

  Highest occupied state (VBM) at     -7.33250031 eV
  | Occupation number:      2.00000000

  Lowest unoccupied state (CBM) at    -5.13640777 eV
  | Occupation number:      0.00000000

  Overall HOMO-LUMO gap:      2.19609255 eV.

  Total energy components:
  | Sum of eigenvalues            :          -0.53892887 Ha         -14.66500062 eV
  | XC energy correction          :           0.29698283 Ha           8.08131407 eV
  | XC potential correction       :           0.00000000 Ha           0.00000000 eV
  | Free-atom electrostatic energy:          -0.56553591 Ha         -15.38901518 eV
  | Hartree energy correction     :           0.05174694 Ha           1.40810588 eV
  | Entropy correction            :           0.00000000 Ha           0.00000000 eV
  | ---------------------------
  | Total energy                  :          -0.75573501 Ha         -20.56459586 eV
  | Total energy, T -> 0          :          -0.75573501 Ha         -20.56459586 eV  <-- do not rely on this value for anything but (periodic) metals
  | Electronic free energy        :          -0.75573501 Ha         -20.56459586 eV

  Derived energy quantities:
  | Kinetic energy                :           0.71572354 Ha          19.47582841 eV
  | Electrostatic energy          :          -1.17447571 Ha         -31.95911020 eV
  | Energy correction for multipole
  | error in Hartree potential    :           0.00000014 Ha           0.00000389 eV
  | Sum of eigenvalues per atom                           :          -7.33250031 eV
  | Total energy (T->0) per atom                          :         -10.28229793 eV  <-- do not rely on this value for anything but (periodic) metals
  | Electronic free energy per atom                       :         -10.28229793 eV

  Self-consistency convergence accuracy:
  | Change of charge density      : 0.2001E-06
  | Change of sum of eigenvalues  : -.1167E-04 eV
  | Change of total energy        : -.2215E-05 eV

  End self-consistency iteration #     9       :  max(cpu_time)    wall_clock(cpu1)
  | Time for this iteration                    :        0.648 s           0.648 s
  | Charge density update                      :        0.092 s           0.090 s
  | Density mixing                             :        0.036 s           0.035 s
  | Hartree multipole update                   :        0.068 s           0.067 s
  | Hartree multipole summation                :        0.264 s           0.265 s
  | Integration                                :        0.180 s           0.177 s
  | Fock matrix evaluation                     :        0.012 s           0.012 s
  | Solution of K.-S. eqns.                    :        0.004 s           0.001 s
  | Total energy evaluation                    :        0.000 s           0.001 s
------------------------------------------------------------

------------------------------------------------------------
          Begin self-consistency iteration #   10

  Date     :  20140812, Time     :  112831.195
------------------------------------------------------------
  Evaluating new KS density.
  Integration grid: deviation in total charge (<rho> - N_e) =  -5.773160E-15
  Pulay mixing of updated and previous charge densities.

  Evaluating partitioned Hartree potential by multipole expansion.
  | Analytical far-field extrapolation by fixed multipoles:
  | Hartree multipole sum: apparent total charge =  -0.116835E-06
  Summing up the Hartree potential.
  Time summed over all CPUs for potential: real work        1.042 s, elapsed        1.055 s
  | RMS charge density error from multipole expansion :   0.113411E-04

  Integrating Hamiltonian matrix: batch-based integration.
  Time summed over all CPUs for integration: real work        0.692 s, elapsed        0.701 s
  Evaluating the exchange matrix ... 

  Updating Kohn-Sham eigenvalues, eigenvectors, occupation numbers, and Fermi level.
  Solving generalized eigenproblem
  Updating Kohn-Sham eigenvalues and eigenfunctions.
  Solving real generalised eigenvalue problem by standard LAPACK (fast)
  Determining occupation numbers for Kohn-Sham eigenstates.
  | Chemical potential (Fermi level) in eV                 : -.62344588E+01
  | Error in electron count due to remaining E_F inaccuracy: 0.00000000E+00
  | Maximum occupation number of highest empty state:  0.00E+00

  Highest occupied state (VBM) at     -7.33250576 eV
  | Occupation number:      2.00000000

  Lowest unoccupied state (CBM) at    -5.13641176 eV
  | Occupation number:      0.00000000

  Overall HOMO-LUMO gap:      2.19609400 eV.

  Total energy components:
  | Sum of eigenvalues            :          -0.53892927 Ha         -14.66501152 eV
  | XC energy correction          :           0.29698280 Ha           8.08131313 eV
  | XC potential correction       :           0.00000000 Ha           0.00000000 eV
  | Free-atom electrostatic energy:          -0.56553591 Ha         -15.38901518 eV
  | Hartree energy correction     :           0.05174731 Ha           1.40811600 eV
  | Entropy correction            :           0.00000000 Ha           0.00000000 eV
  | ---------------------------
  | Total energy                  :          -0.75573507 Ha         -20.56459757 eV
  | Total energy, T -> 0          :          -0.75573507 Ha         -20.56459757 eV  <-- do not rely on this value for anything but (periodic) metals
  | Electronic free energy        :          -0.75573507 Ha         -20.56459757 eV

  Derived energy quantities:
  | Kinetic energy                :           0.71572286 Ha          19.47580986 eV
  | Electrostatic energy          :          -1.17447513 Ha         -31.95909430 eV
  | Energy correction for multipole
  | error in Hartree potential    :           0.00000014 Ha           0.00000389 eV
  | Sum of eigenvalues per atom                           :          -7.33250576 eV
  | Total energy (T->0) per atom                          :         -10.28229878 eV  <-- do not rely on this value for anything but (periodic) metals
  | Electronic free energy per atom                       :         -10.28229878 eV

  Self-consistency convergence accuracy:
  | Change of charge density      : 0.1595E-06
  | Change of sum of eigenvalues  : -.1089E-04 eV
  | Change of total energy        : -.1711E-05 eV

  End self-consistency iteration #    10       :  max(cpu_time)    wall_clock(cpu1)
  | Time for this iteration                    :        0.660 s           0.659 s
  | Charge density update                      :        0.100 s           0.097 s
  | Density mixing                             :        0.036 s           0.037 s
  | Hartree multipole update                   :        0.072 s           0.071 s
  | Hartree multipole summation                :        0.264 s           0.265 s
  | Integration                                :        0.176 s           0.175 s
  | Fock matrix evaluation                     :        0.012 s           0.012 s
  | Solution of K.-S. eqns.                    :        0.004 s           0.001 s
  | Total energy evaluation                    :        0.000 s           0.000 s
------------------------------------------------------------

------------------------------------------------------------
          Begin self-consistency iteration #   11

  Date     :  20140812, Time     :  112831.854
------------------------------------------------------------
  Evaluating new KS density.
  Integration grid: deviation in total charge (<rho> - N_e) =   4.440892E-16
  Pulay mixing of updated and previous charge densities.

  Evaluating partitioned Hartree potential by multipole expansion.
  | Analytical far-field extrapolation by fixed multipoles:
[...]

  Integrating Hamiltonian matrix: batch-based integration.
  Time summed over all CPUs for integration: real work        0.695 s, elapsed        0.711 s
  Evaluating the exchange matrix ... 

  Updating Kohn-Sham eigenvalues, eigenvectors, occupation numbers, and Fermi level.
  Solving generalized eigenproblem
  Updating Kohn-Sham eigenvalues and eigenfunctions.
  Solving real generalised eigenvalue problem by standard LAPACK (fast)
  Determining occupation numbers for Kohn-Sham eigenstates.
  | Chemical potential (Fermi level) in eV                 : -.62344601E+01
  | Error in electron count due to remaining E_F inaccuracy: 0.00000000E+00
  | Maximum occupation number of highest empty state:  0.00E+00

  Highest occupied state (VBM) at     -7.33250729 eV
  | Occupation number:      2.00000000

  Lowest unoccupied state (CBM) at    -5.13641290 eV
  | Occupation number:      0.00000000

  Overall HOMO-LUMO gap:      2.19609439 eV.

  Total energy components:
  | Sum of eigenvalues            :          -0.53892938 Ha         -14.66501458 eV
  | XC energy correction          :           0.29698275 Ha           8.08131168 eV
  | XC potential correction       :           0.00000000 Ha           0.00000000 eV
  | Free-atom electrostatic energy:          -0.56553591 Ha         -15.38901518 eV
  | Hartree energy correction     :           0.05174742 Ha           1.40811906 eV
  | Entropy correction            :           0.00000000 Ha           0.00000000 eV
  | ---------------------------
  | Total energy                  :          -0.75573512 Ha         -20.56459902 eV
  | Total energy, T -> 0          :          -0.75573512 Ha         -20.56459902 eV  <-- do not rely on this value for anything but (periodic) metals
  | Electronic free energy        :          -0.75573512 Ha         -20.56459902 eV

  Derived energy quantities:
  | Kinetic energy                :           0.71572258 Ha          19.47580238 eV
  | Electrostatic energy          :          -1.17447496 Ha         -31.95908972 eV
  | Energy correction for multipole
  | error in Hartree potential    :           0.00000014 Ha           0.00000389 eV
  | Sum of eigenvalues per atom                           :          -7.33250729 eV
  | Total energy (T->0) per atom                          :         -10.28229951 eV  <-- do not rely on this value for anything but (periodic) metals
  | Electronic free energy per atom                       :         -10.28229951 eV

  Self-consistency convergence accuracy:
  | Change of charge density      : 0.4937E-08
  | Change of sum of eigenvalues  : -.2394E-06 eV
  | Change of total energy        : -.2776E-06 eV

  Writing Kohn-Sham eigenvalues.

  State    Occupation    Eigenvalue [Ha]    Eigenvalue [eV]
      1       2.00000          -0.269465           -7.33251
      2       0.00000          -0.188760           -5.13641
      3       0.00000           0.180980            4.92471
      4       0.00000           0.195079            5.30838
      5       0.00000           0.386775           10.52469
      6       0.00000           0.387525           10.54510
      7       0.00000           0.387525           10.54510
      8       0.00000           0.388267           10.56529
      9       0.00000           0.388267           10.56529
     10       0.00000           0.389145           10.58919
     11       0.00000           0.958309           26.07691
     12       0.00000           0.978478           26.62574
     13       0.00000           1.207096           32.84676
     14       0.00000           1.207108           32.84707
     15       0.00000           1.207108           32.84707
     16       0.00000           1.207117           32.84731
     17       0.00000           1.207117           32.84731
     18       0.00000           1.207121           32.84742
     19       0.00000           1.207121           32.84742
     20       0.00000           1.207179           32.84902
     21       0.00000           1.207179           32.84902
     22       0.00000           1.207249           32.85093
     23       0.00000           1.832051           49.85263
     24       0.00000           1.832955           49.87726
     25       0.00000           1.832955           49.87726
     26       0.00000           1.833084           49.88076
     27       0.00000           1.833084           49.88076
     28       0.00000           1.834192           49.91089
     29       0.00000           3.480410           94.70677
     30       0.00000           3.480410           94.70677
     31       0.00000           3.480410           94.70677
     32       0.00000           3.480410           94.70677
     33       0.00000           3.480439           94.70756
     34       0.00000           3.480439           94.70756
     35       0.00000           3.480440           94.70759
     36       0.00000           3.480440           94.70759
     37       0.00000           3.480457           94.70804
     38       0.00000           3.480457           94.70804
     39       0.00000           3.480459           94.70812
     40       0.00000           3.480459           94.70812
     41       0.00000           3.480461           94.70817
     42       0.00000           3.480467           94.70832
     43       0.00000           3.830274          104.22706
     44       0.00000           3.865498          105.18554
     45       0.00000           5.325335          144.90975
     46       0.00000           5.325386          144.91112
     47       0.00000           5.325386          144.91112
     48       0.00000           5.325388          144.91118
     49       0.00000           5.325388          144.91118
     50       0.00000           5.325397          144.91144
     51       0.00000           5.325397          144.91144
     52       0.00000           5.325430          144.91232
     53       0.00000           5.325430          144.91232
     54       0.00000           5.325544          144.91542
     55       0.00000           8.570257          233.20856
     56       0.00000           8.572638          233.27334
     57       0.00000           8.572638          233.27334
     58       0.00000           8.572967          233.28231
     59       0.00000           8.572967          233.28231
     60       0.00000           8.575688          233.35635
     61       0.00000          21.797563          593.14187
     62       0.00000          21.918099          596.42183

  Highest occupied state (VBM) at     -7.33250729 eV
  | Occupation number:      2.00000000

  Lowest unoccupied state (CBM) at    -5.13641290 eV
  | Occupation number:      0.00000000

  Overall HOMO-LUMO gap:      2.19609439 eV.

  Self-consistency cycle converged.

  End self-consistency iteration #    12       :  max(cpu_time)    wall_clock(cpu1)
  | Time for this iteration                    :        0.652 s           0.654 s
  | Charge density update                      :        0.092 s           0.091 s
  | Density mixing                             :        0.040 s           0.040 s
  | Hartree multipole update                   :        0.068 s           0.065 s
  | Hartree multipole summation                :        0.268 s           0.265 s
  | Integration                                :        0.180 s           0.178 s
  | Fock matrix evaluation                     :        0.012 s           0.012 s
  | Solution of K.-S. eqns.                    :        0.004 s           0.002 s
  | Total energy evaluation                    :        0.000 s           0.000 s
------------------------------------------------------------

  Energy and forces in a compact form:
  | Total energy uncorrected      :         -0.205645990177836E+02 eV
  | Total energy corrected        :         -0.205645990177836E+02 eV  <-- do not rely on this value for anything but (periodic) metals
  | Electronic free energy        :         -0.205645990177836E+02 eV

  ------------------------------------ 
  Start decomposition of the XC Energy 
  ------------------------------------ 
  Hartree-Fock part   :          0.296982746 Ha              8.081311682 eV
  ------------------------------------ 
  X Energy            :          0.296982746 Ha              8.081311682 eV
  C Energy GGA        :          0.000000000 Ha              0.000000000 eV
  Total XC Energy     :          0.296982746 Ha              8.081311682 eV
  LDA X and C from self-consistent density 
  X Energy LDA        :         -0.351146145 Ha             -9.555172769 eV
  C Energy LDA        :         -0.075211163 Ha             -2.046599886 eV
  ------------------------------------ 
  End decomposition of the XC Energy 
  ------------------------------------ 
---------------------------------------------
---------------------------------------------
 | MP2 calculation starts ...
---------------------------------------------

  | Note : Resolution of identity applied 
  | Note : Non spin-polarized system 
---------------------------------------------
  | Homo level                                        1
  | Lumo level                                        2
  | Total Number of states                           62
  | Number of k-points                                1
  | Homo-Lumo Gap                            0.08070499 Ha          2.19609439 eV
---------------------------------------------
  The ovlp_3KS matrix takes another      0 MiB x      4 procs =       0.000 GiB.


---------------------------------------------
| Sum of correlation terms 
---------------------------------------------
  | Pair state     1                    :         -8.91722523 eV         -8.91722523 eV

---------------------------------------------
| Correlation energy spectrum 
---------------------------------------------
  |     2    :         -0.18875970        -0.30156055
  |     3    :          0.18097976        -0.00153272
  |     4    :          0.19507930        -0.00902137
  |     5    :          0.38677508        -0.00100559
  |     6    :          0.38752519        -0.00098464
  |     7    :          0.38752519        -0.00098464
  |     8    :          0.38826729        -0.00094961
  |     9    :          0.38826729        -0.00094961
  |    10    :          0.38914549        -0.00093815
  |    11    :          0.95830895        -0.00135231
  |    12    :          0.97847797        -0.00299403
  |    13    :          1.20709610        -0.00010250
  |    14    :          1.20710751        -0.00010160
  |    15    :          1.20710751        -0.00010160
  |    16    :          1.20711661        -0.00010216
  |    17    :          1.20711661        -0.00010216
  |    18    :          1.20712059        -0.00010146
  |    19    :          1.20712059        -0.00010146
  |    20    :          1.20717934        -0.00010153
  |    21    :          1.20717934        -0.00010153
  |    22    :          1.20724943        -0.00010153
  |    23    :          1.83205061        -0.00047165
  |    24    :          1.83295548        -0.00047103
  |    25    :          1.83295548        -0.00047103
  |    26    :          1.83308410        -0.00047132
  |    27    :          1.83308410        -0.00047132
  |    28    :          1.83419155        -0.00047167
  |    29    :          3.48040972        -0.00002050
  |    30    :          3.48040972        -0.00002050
  |    31    :          3.48040987        -0.00002050
  |    32    :          3.48040987        -0.00002050
  |    33    :          3.48043895        -0.00002054
  |    34    :          3.48043898        -0.00002054
  |    35    :          3.48043993        -0.00002053
  |    36    :          3.48043996        -0.00002053
  |    37    :          3.48045656        -0.00002056
  |    38    :          3.48045656        -0.00002056
  |    39    :          3.48045943        -0.00002055
  |    40    :          3.48045943        -0.00002055
  |    41    :          3.48046122        -0.00002057
  |    42    :          3.48046661        -0.00002056
  |    43    :          3.83027416        -0.00027448
  |    44    :          3.86549765        -0.00032799
  |    45    :          5.32533540        -0.00003885
  |    46    :          5.32538564        -0.00003882
  |    47    :          5.32538564        -0.00003882
  |    48    :          5.32538811        -0.00003883
  |    49    :          5.32538811        -0.00003883
  |    50    :          5.32539741        -0.00003884
  |    51    :          5.32539741        -0.00003884
  |    52    :          5.32542986        -0.00003885
  |    53    :          5.32542986        -0.00003885
  |    54    :          5.32554365        -0.00003887
  |    55    :          8.57025715        -0.00004773
  |    56    :          8.57263782        -0.00004770
  |    57    :          8.57263782        -0.00004770
  |    58    :          8.57296724        -0.00004763
  |    59    :          8.57296724        -0.00004763
  |    60    :          8.57568813        -0.00004755
  |    61    :         21.79756303        -0.00000952
  |    62    :         21.91809923        -0.00000943
---------------------------------------------
 
 
 
          ---------------------------------------------
          | MP2 calculation comes to finish ...  
 
          ---------------------------------------------
          | Total time for calculating MP2 correction              :        0.000 s

          ---------------------------------------------

---------------------------------------------
  | HF Energy                      :         -0.75573512 Ha        -20.56459902 eV
  | MP2 correction                 :         -0.32770200 Ha         -8.91722523 eV
---------------------------------------------
  | Total Energy + MP2 correction  :         -1.08343713 Ha        -29.48182424 eV
---------------------------------------------

------------------------------------------------------------------------------
  Final output of selected total energy values:

  The following output summarizes some interesting total energy values
  at the end of a run (AFTER all relaxation, molecular dynamics, etc.).

  | Total energy of the DFT / Hartree-Fock s.c.f. calculation      :            -20.564599018 eV
  | Final zero-broadening corrected energy (caution - metals only) :            -20.564599018 eV
  | Total energy after the post-s.c.f. correlation calculation     :            -29.481824244 eV
  | For reference only, the value of 1 Hartree used in FHI-aims is :             27.211384500 eV

  Before relying on these values, please be sure to understand exactly which
  total energy value is referred to by a given number. Different objects may
  all carry the same name 'total energy'. Definitions:

  Total energy of the DFT / Hartree-Fock s.c.f. calculation:
  | Note that this energy does not include ANY quantities calculated after the
  | s.c.f. cycle, in particular not ANY RPA, MP2, etc. many-body perturbation terms.

  Final zero-broadening corrected energy:
  | For metallic systems only, a broadening of the occupation numbers at the Fermi
  | level can be extrapolated back to zero broadening by an electron-gas inspired
  | formula. For all systems that are not real metals, this value can be
  | meaningless and should be avoided.

  Total energy of the post-s.c.f. correlation calculation        :
  | The actual meaning of this energy depends on the setting for the 'total_energy_method'
  | keyword (MP2, RPA, rPT2, etc). If not sure, compare to the results listed above.

------------------------------------------------------------------------------

  Methods described in the following list of references were used in this FHI-aims run.
  If you publish the results, please make sure to cite these reference if they apply.
  FHI-aims is an academic code, and for our developers (often, Ph.D. students
  and postdocs), scientific credit in the community is essential.
  Thank you for helping us!

  For any use of FHI-aims, please cite:

    Volker Blum, Ralf Gehrke, Felix Hanke, Paula Havu, Ville Havu,
    Xinguo Ren, Karsten Reuter, and Matthias Scheffler,
    "Ab initio molecular simulations with numeric atom-centered orbitals"
    Computer Physics Communications 180, 2175-2196 (2009).
    http://dx.doi.org/10.1016/j.cpc.2009.06.022

  For Hartree-Fock, hybrid functionals, or many-body perturbation theory used in your run, please cite:

    Xinguo Ren, Patrick Rinke, Volker Blum, Juergen Wieferink, Alex Tkatchenko,
    Andrea Sanfilippo, Karsten Reuter, and Matthias Scheffler,
    "Resolution-of-identity approach to Hartree-Fock, hybrid density functionals,
     RPA, MP2, and GW with numeric atom-centered orbital basis functions"
    New Journal of Physics 14, 053020 (2012).
    http://dx.doi.org/10.1088/1367-2630/14/5/053020

  For the NAO-VCC-nZ basis sets used in this calculation, please cite:

    Igor Ying Zhang, Xinguo Ren, Patrick Rinke, Volker Blum, and Matthias Scheffler,
    "Numeric atom-centered-orbital basis sets with valence-correlation consistency from H to Ar"
    New Journal of Physics 15, 123033 (2013).
    http://dx.doi.org/10.1088/1367-2630/15/12/123033

  For the real-space grid partitioning and parallelization used in this calculation, please cite:

    Ville Havu, Volker Blum, Paula Havu, and Matthias Scheffler,
    "Efficient O(N) integration for all-electron electronic
    structure calculation using numerically tabulated basis functions"
    Journal of Computational Physics 228, 8367-8379 (2009).
    http://dx.doi.org/10.1016/j.jcp.2009.08.008

  Of course, there are many other important community references, e.g., those cited in the
  above references. Our list is limited to references that describe implementations in the FHI-aims
  code. The reason is purely practical (length of this list) - please credit others as well.

------------------------------------------------------------
          Leaving FHI-aims.
          Date     :  20140812, Time     :  112833.191

          Computational steps:
          | Number of self-consistency cycles          :           12

          Detailed time accounting                     :  max(cpu_time)    wall_clock(cpu1)
          | Total time                                 :       25.262 s          25.296 s
          | Preparation time                           :        0.176 s           0.189 s
          | Grid partitioning                          :        0.224 s           0.223 s
          | Preloading free-atom quantities on grid    :        0.068 s           0.067 s
          | Free-atom superposition energy             :        0.036 s           0.036 s
          | Total time for integrations                :        2.464 s           2.446 s
          | Product basis setup: Total time            :        0.000 s           0.000 s
          | Product basis: | 3-center integrations     :       16.173 s          16.186 s
          | Product basis: | 2-center integrations     :        0.256 s           0.257 s
          | Product basis: | 2-center linear algebra   :        0.092 s           0.089 s
          | Product basis: | 3-center x 2-center       :        0.028 s           0.026 s
          | Total time evaluating exchange matrix      :        0.156 s           0.150 s
          | Transforming ovlp_3fn to ovlp_3KS          :        0.012 s           0.010 s
          | Total time for solution of K.-S. equations :        0.048 s           0.023 s
          | Total time for density update              :        1.124 s           1.098 s
          | Total time for mixing                      :        0.276 s           0.275 s
          | Total time for Hartree multipole update    :        0.828 s           0.813 s
          | Total time for Hartree multipole sum       :        3.200 s           3.187 s
          | Total time for total energy evaluation     :        0.000 s           0.004 s

          Have a nice day.
------------------------------------------------------------
