  MPI-parallelism will be employed.
------------------------------------------------------------
          Invoking FHI-aims ...
          Version 072414
          Compiled on 2014/08/06 at 00:00:04 on host theobook58.

          When using FHI-aims, please cite the following reference:

          Volker Blum, Ralf Gehrke, Felix Hanke, Paula Havu,
          Ville Havu, Xinguo Ren, Karsten Reuter, and Matthias Scheffler,
          'Ab Initio Molecular Simulations with Numeric Atom-Centered Orbitals: FHI-aims',
          Computer Physics Communications 180, 2175-2196 (2009)

          For any questions about FHI-aims, please visit the aimsclub website
          with its forums and wiki. Contributions to both the forums and the
          wiki are warmly encouraged - they are for you, and everyone is welcome there.

------------------------------------------------------------

  Date     :  20140812, Time     :  112740.445
  Time zero on CPU 1             :   0.240010000000000E-01  s.
  Internal wall clock time zero  :           177074860.445  s.

  Using        4 parallel tasks.
  Task        0 on host theobook58 reporting.
  Task        1 on host theobook58 reporting.
  Task        2 on host theobook58 reporting.
  Task        3 on host theobook58 reporting.

  Performing system and environment tests:
  | Environment variable OMP_NUM_THREADS correctly set to 1.
  | Stacksize not measured: no C compiler
  | Checking for scalapack...
  | No scalapack compiled in.

  Obtaining array dimensions for all initial allocations:
  
  -----------------------------------------------------------------------
  Parsing control.in (first pass over file, find array dimensions only).
  The contents of control.in will be repeated verbatim below
  unless switched off by setting 'verbatim_writeout .false.' .
  in the first line of control.in .
  -----------------------------------------------------------------------
  
  xc                      hf
  total_energy_method     mp2
  relativistic            none
  occupation_type         integer 0.0001
  mixer                   pulay
  n_max_pulay             10
  charge_mix_param        0.6
  sc_iter_limit           600
  sc_accuracy_rho         1E-6
  sc_accuracy_eev         1E-4
  sc_accuracy_etot        1E-6
  override_illconditioning .true.
  charge                  0
  ################################################################################
  #
  #  FHI-aims code project
  # Igor Ying Zhang and Xinguo Ren, Fritz Haber Institute Berlin, 2012
  #
  #  Suggested "NAO-VCC-4Z" defaults for H atom (to be pasted into control.in file)
  #
  #  Please cite:
  #
  #  Igor Ying Zhang, Xinguo Ren, Patrick Rinke, Volker Blum, and Matthias Scheffler,
  #  "Numeric atom-centered-orbital basis sets with valence-correlation consistency from H to Ar"
  #  New Journal of Physics 15, 123033 (2013).
  #  http://dx.doi.org/10.1088/1367-2630/15/12/123033
  #
  ################################################################################
    species        H
  #     set basis set reference for FHI-aims output
      cite_reference NAO-VCC-2013
  #     global species definitions
      nucleus             1
      mass                1.00794
  #
      l_hartree           6
  #
      cut_pot             4.0  2.0  1.0
      basis_dep_cutoff    0e-4
  #
      radial_base         24 7.0
  radial_multiplier               6
      angular_grids       specified
        division   0.1930   50
        division   0.3175  110
        division   0.4293  194
        division   0.5066  302
        division   0.5626  434
        division   0.5922  590
  #      division   0.6227  974
  #      division   0.6868 1202
        outer_grid  770
  #      outer_grid  434
  ################################################################################
  #
  #  Definition of "minimal" basis
  #
  ################################################################################
  #     valence basis states
      valence      1  s   1.
  #     ion occupancy
      ion_occ      1  s   0.5
  ################################################################################
  
  
   basis_acc              1e-04
  #============================================
  # Optimization in      H for       NAO-VCC-4Z
  #============================================
  # (sp) correlation set
   hydro     1     s      1.15655525
   hydro     1     s      1.68684502
   hydro     1     s      2.46027686
   hydro     2     p      2.92145897
   hydro     2     p      4.14501835
   hydro     2     p      5.88102632
  # polarization set
   hydro     3     d      6.41446874
   hydro     3     d      7.67536483
   hydro     4     f     10.80870049
  # (sp) enhanced minimal set
   hydro     1     s      3.58833335
  
  -----------------------------------------------------------------------
  Completed first pass over input file control.in .
  -----------------------------------------------------------------------
  
  
  -----------------------------------------------------------------------
  Parsing geometry.in (first pass over file, find array dimensions only).
  The contents of geometry.in will be repeated verbatim below
  unless switched off by setting 'verbatim_writeout .false.' .
  in the first line of geometry.in .
  -----------------------------------------------------------------------
  
  atom             0.0             0.0             0.0    H
  atom             0.0             0.0             6.2    H
  
  -----------------------------------------------------------------------
  Completed first pass over input file geometry.in .
  -----------------------------------------------------------------------
  

  Basic array size parameters:
  | Number of species                 :        1
  | Number of atoms                   :        2
  | Max. basis fn. angular momentum   :        3
  | Max. atomic/ionic basis occupied n:        1
  | Max. number of basis fn. types    :        2
  | Max. radial fns per species/type  :       10
  | Max. logarithmic grid size        :     1131
  | Max. radial integration grid size :      149
  | Max. angular integration grid size:      770
  | Max. angular grid division number :        8
  | Radial grid for Hartree potential :     1131
  | Number of spin channels           :        1

------------------------------------------------------------
          Reading file control.in.
------------------------------------------------------------
 
  Hartree-Fock calculation starts ...... 
  Attention: this version of Hartree-Fock employs an auxiliary basis. 
 
  MP2 correlation energy calculation will be started after the DFT/HF calculation.
  Non-relativistic treatment of kinetic energy.
  Occupation type: Integer occupation.
  Using pulay charge density mixing.
  Pulay mixing - number of memorized iterations:   10
  Charge density mixing - mixing parameter:     0.6000
  Maximum number of s.-c. iterations  :   600
  Convergence accuracy of self-consistent charge density: 0.1000E-05
  Convergence accuracy of sum of eigenvalues: 0.1000E-03
  Convergence accuracy of total energy: 0.1000E-05
  override_illconditioning: Explicitly overriding any built-in checks for an ill-conditioned overlap matrix.
  *** WARNING: If you use this flag, you should really know what you are doing.
  *** DO NOT keep this flag set by default in all your control.in files.
  Charge =   0.000000E+00: Neutral system requested explicitly.
 
  Reading configuration options for species H                   .
  | Found nuclear charge :   1.0000
  | Found atomic mass :    1.00794000000000      amu
  | Found l_max for Hartree potential  :   6
  | Found cutoff potl. onset [A], width [A], scale factor :    4.00000    2.00000    1.00000
  | Threshold for basis-dependent cutoff potential is   0.000000E+00
  | Found data for basic radial integration grid :    24 points, outermost radius =    7.000 A
  | Found multiplier for basic radial grid :   6
  | Found angular grid specification: user-specified.
  | Specified grid contains     7 separate shells.
  | Check grid settings after all constraints further below.
  | Found free-atom valence shell :  1 s   1.000
  | No ionic wave fns used. Skipping ion_occ.
  | Found basis singularity cutoff : 0.1000E-03
  | Found hydrogenic basis function :  1 s   1.157
  | Found hydrogenic basis function :  1 s   1.687
  | Found hydrogenic basis function :  1 s   2.460
  | Found hydrogenic basis function :  2 p   2.921
  | Found hydrogenic basis function :  2 p   4.145
  | Found hydrogenic basis function :  2 p   5.881
  | Found hydrogenic basis function :  3 d   6.414
  | Found hydrogenic basis function :  3 d   7.675
  | Found hydrogenic basis function :  4 f  10.809
  | Found hydrogenic basis function :  1 s   3.588
  Species H                   : Missing cutoff potential type.
  Defaulting to exp(1/x)/(1-x)^2 type cutoff potential.
  Species H : No 'logarithmic' tag. Using default grid for free atom:
  | Default logarithmic grid data [bohr] : 0.1000E-03 0.1000E+03 0.1012E+01
  Species H                   : Using default innermost maximum threshold i_radial=  2 for radial functions.
  Species H                   : Default cutoff onset for free atom density etc. is infinite
  since the product basis is used (hybrid functionals, Hartree-Fock, GW etc.).
  Species H                   : Basic radial grid will be enhanced according to radial_multiplier =   6, to contain   149 grid points.
 
  Finished reading input file 'control.in'. Consistency checks are next.
 
  Species H: Using default value for prodbas_acc =   1.000000E-02.
  Species H: Using default value max_l_prodbas =     5.
  Target number of points in a grid batch is not set. Defaulting to  100
  Method for grid partitioning is not set. Defaulting to parallel hash+maxmin partitioning.
  Batch size limit is not set. Defaulting to    200
  By default, will store active basis functions for each batch.
  If in need of memory, prune_basis_once .false. can be used to disable this option.
  communication_type for Hartree potential was not specified.
  Defaulting to calc_hartree .
  Pulay mixer: Number of initial linear mixing iterations not set.
  Defaulting to    0 iterations.
  Work space size for distributed Hartree potential not set.
  Defaulting to   0.200000E+03 MB.
  Algorithm-dependent basis array size parameters:
  | n_max_pulay                         :       10
  Calculation of forces was not defined in control.in. No forces will be calculated.
  Geometry relaxation not requested: no relaxation will be performed.
  No accuracy limit for integral partition fn. given. Defaulting to 0.1000E-14.
  No threshold value for u(r) in integrations given. Defaulting to 0.1000E-05.
  No accuracy for occupation numbers given. Defaulting to 0.1000E-07.
  No threshold value for occupation numbers given. Defaulting to 0.0000E+00.
  No accuracy for fermi level given. Defaulting to 0.1000E-19.
  Maximum # of iterations to find E_F not set. Defaulting to  200.
  Preferred method for the eigenvalue solver ('KS_method') not specified in 'control.in'.
  Calling blacs routine to test compilation state
  The best choice would be 'elpa', but your version of FHI-aims is compiled without scalapack support.
  Defaulting to 'lapack_fast' instead (serial solution, time will not improve with more CPUs).
  Will not use alltoall communication since running on < 1024 CPUs.
  Threshold for basis singularities not set.
  Default threshold for basis singularities: 0.1000E-04
  partition_type (choice of integration weights) for integrals was not specified.
  | Using a version of the partition function of Stratmann and coworkers ('stratmann_smoother').
  | At each grid point, the set of atoms used to build the partition table is smoothly restricted to
  | only those atoms whose free-atom density would be non-zero at that grid point.
  Partitioning for Hartree potential was not defined. Using partition_type for integrals.
  | Adjusted default value of keyword multip_moments_threshold to:       0.10000000E-11
  | This value may affect high angular momentum components of the Hartree potential in periodic systems.
  Spin handling was not defined in control.in. Defaulting to unpolarized case.
  Threshold for auxiliary basis singularities not set.
  Default threshold for auxiliary basis singularities: 0.1000E-04
  No q(lm)/r^(l+1) cutoff set for long-range Hartree potential.
  | Using default value of  0.100000E-09 .
  | Verify using the multipole_threshold keyword.
  Defaulting to new monopole extrapolation.
  Density update method: automatic selection selected.
  Default to 1D ("use_logsbt") integrations for auxiliary 2-center integrals.
  Default onset of logarithmic r-grid for SBT is-38.000000000000
  Default onset of logarithmic k-grid for SBT is-25.000000000000
  Default range of logarithmic r- and k-grid for SBT is 45.000000000000
  Default number of logarithmic r- and k-grid for SBT is  4096
------------------------------------------------------------


------------------------------------------------------------
          Reading geometry description geometry.in.
------------------------------------------------------------
  Input structure read successfully.
  The structure contains        2 atoms,  and a total of          2.000 electrons.

  Input geometry:
  | No unit cell requested.
  | Atomic structure:
  |       Atom                x [A]            y [A]            z [A]
  |    1: Species H              0.000000         0.000000         0.000000
  |    2: Species H              0.000000         0.000000         6.200000
  |

  | The smallest distance between any two atoms is         6.20000000 AA.
  |
  | The first atom of this pair is atom number                      1 .
  | The second atom of this pair is atom number                     2 .

  Number of empty states per atom not set in control.in .
  | Since you are using a method that relies on the unoccupied spectrum
  | (MP2,GW,RPA et al.), will use the full Hamiltonian size (see below)
  | as the max. possible number of states (occupied plus empty).

  Structure-dependent array size parameters: 
  | Maximum number of distinct radial functions  :       11
  | Maximum number of basis functions            :       62
  | Number of Kohn-Sham states (occupied + empty):       62
------------------------------------------------------------

------------------------------------------------------------
          Preparing all fixed parts of the calculation.
------------------------------------------------------------
  Determining machine precision:
    2.225073858507201E-308
  Setting up grids for atomic and cluster calculations.

  Creating wave function, potential, and density for free atoms.

  Species: H

  List of occupied orbitals and eigenvalues:
    n    l              occ      energy [Ha]    energy [eV]
    1    0           1.0000        -0.233457        -6.3527

  Creating fixed part of basis set: Ionic, confined, hydrogenic.
 
  H                    hydrogenic:
 
  List of hydrogenic basis orbitals: 
    n    l      effective z      eigenvalue [eV]  inner max. [A]     outer max. [A]     outer radius [A]   
    1    0         1.156555       -18.1992           0.460320           0.460320           5.243229
    1    0         1.686845       -38.7143           0.315118           0.315118           4.932336
    1    0         2.460277       -82.3547           0.215718           0.215718           3.815562
    2    1         2.921459       -29.0309           0.723605           0.723605           5.243229
    2    1         4.145018       -58.4405           0.507614           0.507614           4.813203
    2    1         5.881026      -117.6432           0.360475           0.360475           3.678162
    3    2         6.414469       -62.2013           0.741515           0.741515           4.993004
    3    2         7.675365       -89.0587           0.617279           0.617279           4.583499
    4    3        10.808700       -99.3454           0.778676           0.778676           4.696947
    1    0         3.588333      -175.1887           0.147673           0.147673           2.644120
 

  Adding cutoff potential to free-atom effective potential.
  Creating atomic-like basis functions for current effective potential.

  Species H                   :

  List of atomic basis orbitals and eigenvalues:
    n    l      energy [Ha]    energy [eV]    outer radius [A]
    1    0        -0.233418        -6.3516       5.373006

  Assembling full basis from fixed parts.
  | Species H :   atomic orbital   1 s accepted.
  | Species H :    hydro orbital   1 s accepted.
  | Species H :    hydro orbital   1 s accepted.
  | Species H :    hydro orbital   1 s accepted.
  | Species H :    hydro orbital   1 s accepted.
  | Species H :    hydro orbital   2 p accepted.
  | Species H :    hydro orbital   2 p accepted.
  | Species H :    hydro orbital   2 p accepted.
  | Species H :    hydro orbital   3 d accepted.
  | Species H :    hydro orbital   3 d accepted.
  | Species H :    hydro orbital   4 f accepted.
 
  Basis size parameters after reduction:
  | Total number of radial functions:       11
  | Total number of basis functions :       62
 
  Testing on-site integration grid accuracy.
  |  Species  Function  <phi|h_atom|phi> (log., in eV)  <phi|h_atom|phi> (rad., in eV)
           1        1                 -6.3519216712                 -6.3519215989
           1        2                  8.4716038567                  8.4716058028
           1        3                 58.3749927434                 58.3750109815
           1        4                178.9024737125                178.9026031671
           1        5                456.3642310330                456.3649721232
           1        6                 16.2415699263                 16.2415699338
           1        7                 68.2932618880                 68.2932619123
           1        8                188.3801588017                188.3801587562
           1        9                 49.9849006789                 49.9849006869
           1       10                114.3821731125                114.3821730675
           1       11                 88.0899419283                 88.0899419237

  Preparing densities etc. for the partition functions (integrals / Hartree potential).

  Preparations completed.
  max(cpu_time)          :      0.192 s.
  Wall clock time (cpu1) :      0.205 s.
------------------------------------------------------------

------------------------------------------------------------
          Begin self-consistency loop: Initialization.

          Date     :  20140812, Time     :  112740.655
------------------------------------------------------------

  Initializing index lists of integration centers etc. from given atomic structure:
  | Number of centers in hartree potential         :         2
  | Number of centers in hartree multipole         :         2
  | Number of centers in electron density summation:         2
  | Number of centers in basis integrals           :         2
  | Number of centers in integrals                 :         2
  Partitioning the integration grid into batches with parallel hashing+maxmin method.
  | Number of batches:     1275
  | Maximal batch size:     150
  | Minimal batch size:      61
  | Average batch size:     113.258
  | Standard deviation of batch sizes:      34.782

  Integration load balanced across     4 MPI tasks.
  Work distribution over tasks is as follows:
  Task     0 has      36067 integration points.
  Task     1 has      36040 integration points.
  Task     2 has      36176 integration points.
  Task     3 has      36121 integration points.
  Initializing partition tables, free-atom densities, potentials, etc. across the integration grid (initialize_grid_storage).
  | Original list of interatomic distances with           2 x          2 entries is created.
  | Net number of integration points:   144404
  | of which are non-zero points    :   143404
  Obtaining max. number of non-zero basis functions in each batch (get_n_compute_maxes).
  | Maximal number of non-zero basis functions:       62 in task     0
  | Maximal number of non-zero basis functions:       62 in task     1
  | Maximal number of non-zero basis functions:       62 in task     2
  | Maximal number of non-zero basis functions:       62 in task     3
  Selecting the method for density update.
  Loop over occupied states selected for charge density update.
  Integrating Hamiltonian matrix: batch-based integration.
  Time summed over all CPUs for integration: real work        0.851 s, elapsed        0.859 s
  Integrating overlap matrix.
  Time summed over all CPUs for integration: real work        0.467 s, elapsed        0.478 s

  Updating Kohn-Sham eigenvalues, eigenvectors, occupation numbers, and Fermi level.
  Solving generalized eigenproblem
  Updating Kohn-Sham eigenvalues and eigenfunctions.
  Transforming overlap matrix and checking for singularities.
  Overlap matrix is nonsingular:
  | Lowest eigenvalue:  0.934746E+00
  Solving real generalised eigenvalue problem by standard LAPACK (fast)
  Determining occupation numbers for Kohn-Sham eigenstates.
  | Chemical potential (Fermi level) in eV                 : -.63520240E+01
  | Error in electron count due to remaining E_F inaccuracy: 0.00000000E+00
  | Maximum occupation number of highest empty state:  0.00E+00

  Writing Kohn-Sham eigenvalues.

  State    Occupation    Eigenvalue [Ha]    Eigenvalue [eV]
      1       2.00000          -0.233587           -6.35624
      2       0.00000          -0.233278           -6.34781
      3       0.00000           0.091657            2.49411
      4       0.00000           0.108829            2.96139
      5       0.00000           0.244554            6.65465
      6       0.00000           0.245253            6.67368
      7       0.00000           0.245253            6.67368
      8       0.00000           0.245374            6.67697
      9       0.00000           0.245374            6.67697
     10       0.00000           0.246309            6.70241
     11       0.00000           0.764963           20.81569
     12       0.00000           0.792161           21.55578
     13       0.00000           1.022663           27.82807
     14       0.00000           1.022691           27.82885
     15       0.00000           1.022691           27.82885
     16       0.00000           1.022707           27.82928
     17       0.00000           1.022707           27.82928
     18       0.00000           1.022709           27.82933
     19       0.00000           1.022709           27.82933
     20       0.00000           1.022725           27.82975
     21       0.00000           1.022725           27.82975
     22       0.00000           1.022896           27.83442
     23       0.00000           1.586479           43.17030
     24       0.00000           1.588558           43.22687
     25       0.00000           1.588558           43.22687
     26       0.00000           1.588903           43.23624
     27       0.00000           1.588903           43.23624
     28       0.00000           1.591506           43.30708
     29       0.00000           3.237235           88.08966
     30       0.00000           3.237245           88.08991
     31       0.00000           3.237245           88.08991
     32       0.00000           3.237245           88.08993
     33       0.00000           3.237246           88.08994
     34       0.00000           3.237246           88.08994
     35       0.00000           3.237246           88.08994
     36       0.00000           3.237246           88.08994
     37       0.00000           3.237246           88.08994
     38       0.00000           3.237246           88.08994
     39       0.00000           3.237246           88.08994
     40       0.00000           3.237246           88.08994
     41       0.00000           3.237247           88.08997
     42       0.00000           3.237247           88.08997
     43       0.00000           3.503214           95.32730
     44       0.00000           3.550525           96.61470
     45       0.00000           5.017437          136.53139
     46       0.00000           5.017620          136.53638
     47       0.00000           5.017620          136.53638
     48       0.00000           5.017668          136.53770
     49       0.00000           5.017668          136.53770
     50       0.00000           5.017673          136.53783
     51       0.00000           5.017673          136.53783
     52       0.00000           5.017721          136.53914
     53       0.00000           5.017721          136.53914
     54       0.00000           5.018115          136.54984
     55       0.00000           8.189425          222.84559
     56       0.00000           8.194949          222.99592
     57       0.00000           8.194949          222.99592
     58       0.00000           8.195844          223.02025
     59       0.00000           8.195844          223.02025
     60       0.00000           8.202632          223.20498
     61       0.00000          21.323315          580.23693
     62       0.00000          21.487162          584.69543

  Highest occupied state (VBM) at     -6.35623650 eV
  | Occupation number:      2.00000000

  Lowest unoccupied state (CBM) at    -6.34781159 eV
  | Occupation number:      0.00000000

  Overall HOMO-LUMO gap:      0.00842491 eV.
  Calculating total energy contributions from superposition of free atom densities.

  Total energy components:
  | Sum of eigenvalues            :          -0.46717480 Ha         -12.71247300 eV
  | XC energy correction          :          -0.46496107 Ha         -12.65223453 eV
  | XC potential correction       :           0.60607912 Ha          16.49225185 eV
  | Free-atom electrostatic energy:          -0.56553587 Ha         -15.38901404 eV
  | Hartree energy correction     :           0.00000000 Ha           0.00000000 eV
  | Entropy correction            :           0.00000000 Ha           0.00000000 eV
  | ---------------------------
  | Total energy                  :          -0.89159262 Ha         -24.26146972 eV
  | Total energy, T -> 0          :          -0.89159262 Ha         -24.26146972 eV  <-- do not rely on this value for anything but (periodic) metals
  | Electronic free energy        :          -0.89159262 Ha         -24.26146972 eV

  Derived energy quantities:
  | Kinetic energy                :           0.84947315 Ha          23.11534051 eV
  | Electrostatic energy          :          -1.27610470 Ha         -34.72457571 eV
  | Energy correction for multipole
  | error in Hartree potential    :           0.00000000 Ha           0.00000000 eV
  | Sum of eigenvalues per atom                           :          -6.35623650 eV
  | Total energy (T->0) per atom                          :         -12.13073486 eV  <-- do not rely on this value for anything but (periodic) metals
  | Electronic free energy per atom                       :         -12.13073486 eV
 
 --------------------------------------------
  Constructing auxiliary basis (full product) ...
 
  Product basis:
  | charge radius: extent of product basis function
  | field radius: extent of its Coulomb potential
  | Species   l  charge radius    field radius  multipol momen
  |    H      5     4.813203 A      4.813203 A  2.676041E-15 a.u.
  |    H      4     4.932336 A      4.932336 A  2.417679E-16 a.u.
  |    H      3     5.054418 A      5.054418 A  ************ a.u.
  |    H      4     5.054418 A      5.054418 A  ************ a.u.
  |    H      3     5.116587 A      5.116587 A  1.642688E-15 a.u.
  |    H      2     5.179521 A      5.179521 A  6.126280E-16 a.u.
  |    H      3     5.179521 A      5.179521 A  ************ a.u.
  |    H      2     5.243229 A      5.243229 A  1.485543E-16 a.u.
  |    H      2     5.243229 A      5.243229 A  1.683301E-16 a.u.
  |    H      2     5.243229 A      5.243229 A  ************ a.u.
  |    H      3     5.243229 A      5.243229 A  ************ a.u.
  |    H      1     5.307721 A      5.307721 A  2.416866E-16 a.u.
  |    H      1     5.307721 A      5.307721 A  1.291012E-16 a.u.
  |    H      2     5.307721 A      5.307721 A  7.871382E-16 a.u.
  |    H      0     5.373006 A      5.373006 A  9.519909E-17 a.u.
  |    H      1     5.373006 A      5.373006 A  2.334090E-16 a.u.
  |    H      1     5.373006 A      5.373006 A  ************ a.u.
  |    H      1     5.373006 A      5.373006 A  ************ a.u.
  |    H      1     5.373006 A      5.373006 A  1.823473E-16 a.u.
  |    H      0     5.373006 A      5.439094 A  ************ a.u.
  |    H      0     5.439094 A      5.439094 A  ************ a.u.
  |    H      0     5.439094 A      5.505995 A  9.305319E-17 a.u.
  |    H      0     5.439094 A      5.505995 A  4.082184E-17 a.u.
  |    H      0     5.439094 A      5.505995 A  3.169850E-16 a.u.
  |    H      0     5.439094 A      5.505995 A  2.711689E-16 a.u.
  |    H      5     4.872405 A  1.325110E+02 A           19.619780 a.u.
  |    H      4     5.054418 A  3.771796E+02 A           14.639479 a.u.
  |    H      3     5.243229 A  1.836978E+03 A           11.555842 a.u.
  |    H      2     5.307721 A  2.095310E+04 A            4.940052 a.u.
  |    H      1     5.373006 A  2.512347E+06 A            1.793689 a.u.
  |    H      0     5.439094 A  4.604132E+12 A            0.692368 a.u.

  | Shrink_full_auxil_basis : there are       31  radial auxiliary wave functions
                            accepted and      90 rejected.
  | Shrink_full_auxil_basis : there are totally     286 partial auxiliary wave functions.
 
  | Number of product basis functions per thread :    72
  | Minimal requirement for computer memories :           0.005 Gbs
 
  Basis pair condensation :      1953  -->       1953
 
 ----------------------------------------------------
  Integrating the 3-basis-function Coulomb matrix ...
  | i_atom:            1
  | i_atom:            2
  Integrating the Coulomb interaction matrix for auxiliary basis functions (by atoms)

  SBT integration errors (all should be 'small'):
  large logFT aliasing -> increase N/lnrange
  large SBT aliasing -> decrease lnk0 & increase lnk0+lnrange
  large SBT ringing -> decrease lnr0 & increase lnr0+lnrange
  |            El't  L: logFT-al.   small-k   large-k   small-r   large-r
  Atomic logSBT for 2-center Coulomb matrix    :  max(cpu_time)    wall_clock(cpu1)
  | Multiplication with kernel                 :        0.024 s           0.010 s
  | Main matrix multiplication                 :        0.068 s           0.041 s
  | Analytic angular integration               :        0.004 s           0.004 s
  | Kernel construction                        :        0.004 s           0.001 s
  | Overall 2-center overlap time              :        0.096 s           0.062 s

  Difference of Coulomb matrix to its transposed:  9.9638E-17
  Task     0: Eigenvalues of the Coulomb matrix range from    1.6104E+00 to    3.8947E-01.
  Task     0: Using      286   eigenvalues out of rank      286   Coulomb matrix (auxiliary basis).
 
  Multiplying V^-0.5 x ovlp_3fn (1d-scalapack)

  Initialize hartree_potential_storage
  Max. number of atoms included in rho_multipole:            2

  End scf initialization - timings             :  max(cpu_time)    wall_clock(cpu1)
  | Time for scf. initialization               :       19.869 s          19.886 s
  | Boundary condition initialization          :        0.000 s           0.001 s
  | Integration                                :        0.336 s           0.335 s
  | Solution of K.-S. eqns.                    :        0.004 s           0.004 s
  | Grid partitioning                          :        0.276 s           0.275 s
  | Preloading free-atom quantities on grid    :        0.068 s           0.067 s
  | Free-atom superposition energy             :        0.036 s           0.035 s
  | Total energy evaluation                    :        0.000 s           0.001 s
  | Product basis setup: Total time            :       19.077 s          19.093 s
  | Product basis: | 3-center integrations     :       18.569 s          18.589 s
  | Product basis: | 2-center integrations     :        0.260 s           0.259 s
  | Product basis: | 2-center linear algebra   :        0.108 s           0.107 s
  | Product basis: | 3-center x 2-center       :        0.032 s           0.032 s
------------------------------------------------------------

------------------------------------------------------------
          Begin self-consistency iteration #    1

  Date     :  20140812, Time     :  112800.542
------------------------------------------------------------
  Evaluating new KS density.
  Integration grid: deviation in total charge (<rho> - N_e) =  -2.686740E-14
  Pulay mixing of updated and previous charge densities.

  Evaluating partitioned Hartree potential by multipole expansion.
  | Analytical far-field extrapolation by fixed multipoles:
  | Hartree multipole sum: apparent total charge =  -0.134674E-06
  Summing up the Hartree potential.
  Time summed over all CPUs for potential: real work        1.032 s, elapsed        1.045 s
  | RMS charge density error from multipole expansion :   0.254292E-05

  Integrating Hamiltonian matrix: batch-based integration.
  Time summed over all CPUs for integration: real work        0.747 s, elapsed        0.764 s
  Evaluating the exchange matrix ... 

  Updating Kohn-Sham eigenvalues, eigenvectors, occupation numbers, and Fermi level.
  Solving generalized eigenproblem
  Updating Kohn-Sham eigenvalues and eigenfunctions.
  Solving real generalised eigenvalue problem by standard LAPACK (fast)
  Determining occupation numbers for Kohn-Sham eigenstates.
  | Chemical potential (Fermi level) in eV                 : -.58786438E+01
  | Error in electron count due to remaining E_F inaccuracy: 0.00000000E+00
  | Maximum occupation number of highest empty state:  0.00E+00

  Writing Kohn-Sham eigenvalues.

  State    Occupation    Eigenvalue [Ha]    Eigenvalue [eV]
      1       2.00000          -0.258815           -7.04272
      2       0.00000          -0.173257           -4.71457
      3       0.00000           0.180332            4.90707
      4       0.00000           0.201597            5.48574
      5       0.00000           0.397449           10.81513
      6       0.00000           0.398674           10.84848
      7       0.00000           0.398674           10.84848
      8       0.00000           0.399542           10.87209
      9       0.00000           0.399542           10.87209
     10       0.00000           0.401037           10.91276
     11       0.00000           0.970499           26.40862
     12       0.00000           0.998171           27.16162
     13       0.00000           1.220297           33.20598
     14       0.00000           1.220340           33.20715
     15       0.00000           1.220340           33.20715
     16       0.00000           1.220373           33.20803
     17       0.00000           1.220373           33.20803
     18       0.00000           1.220389           33.20849
     19       0.00000           1.220389           33.20849
     20       0.00000           1.220437           33.20979
     21       0.00000           1.220437           33.20979
     22       0.00000           1.220645           33.21544
     23       0.00000           1.855012           50.47745
     24       0.00000           1.857177           50.53636
     25       0.00000           1.857177           50.53636
     26       0.00000           1.857539           50.54621
     27       0.00000           1.857539           50.54621
     28       0.00000           1.860284           50.62089
     29       0.00000           3.501799           95.28881
     30       0.00000           3.501799           95.28881
     31       0.00000           3.501800           95.28882
     32       0.00000           3.501800           95.28882
     33       0.00000           3.501801           95.28886
     34       0.00000           3.501805           95.28897
     35       0.00000           3.501805           95.28897
     36       0.00000           3.501807           95.28901
     37       0.00000           3.501807           95.28901
     38       0.00000           3.501807           95.28902
     39       0.00000           3.501807           95.28902
     40       0.00000           3.501813           95.28918
     41       0.00000           3.501813           95.28918
     42       0.00000           3.501815           95.28925
     43       0.00000           3.861226          105.06931
     44       0.00000           3.909014          106.36967
     45       0.00000           5.359313          145.83433
     46       0.00000           5.359500          145.83941
     47       0.00000           5.359500          145.83941
     48       0.00000           5.359545          145.84065
     49       0.00000           5.359545          145.84065
     50       0.00000           5.359551          145.84081
     51       0.00000           5.359551          145.84081
     52       0.00000           5.359609          145.84238
     53       0.00000           5.359609          145.84238
     54       0.00000           5.360017          145.85350
     55       0.00000           8.612931          234.36979
     56       0.00000           8.618534          234.52223
     57       0.00000           8.618534          234.52223
     58       0.00000           8.619451          234.54720
     59       0.00000           8.619451          234.54720
     60       0.00000           8.626357          234.73512
     61       0.00000          21.836073          594.18977
     62       0.00000          22.000185          598.65550

  Highest occupied state (VBM) at     -7.04271894 eV
  | Occupation number:      2.00000000

  Lowest unoccupied state (CBM) at    -4.71456871 eV
  | Occupation number:      0.00000000

  Overall HOMO-LUMO gap:      2.32815023 eV.

  Total energy components:
  | Sum of eigenvalues            :          -0.51763033 Ha         -14.08543788 eV
  | XC energy correction          :           0.32507243 Ha           8.84567089 eV
  | XC potential correction       :           0.00000000 Ha           0.00000000 eV
  | Free-atom electrostatic energy:          -0.56553587 Ha         -15.38901404 eV
  | Hartree energy correction     :           0.00044534 Ha           0.01211834 eV
  | Entropy correction            :           0.00000000 Ha           0.00000000 eV
  | ---------------------------
  | Total energy                  :          -0.75764843 Ha         -20.61666269 eV
  | Total energy, T -> 0          :          -0.75764843 Ha         -20.61666269 eV  <-- do not rely on this value for anything but (periodic) metals
  | Electronic free energy        :          -0.75764843 Ha         -20.61666269 eV

  Derived energy quantities:
  | Kinetic energy                :           0.84287599 Ha          22.93582271 eV
  | Electrostatic energy          :          -1.27545199 Ha         -34.70681452 eV
  | Energy correction for multipole
  | error in Hartree potential    :           0.00000002 Ha           0.00000056 eV
  | Sum of eigenvalues per atom                           :          -7.04271894 eV
  | Total energy (T->0) per atom                          :         -10.30833134 eV  <-- do not rely on this value for anything but (periodic) metals
  | Electronic free energy per atom                       :         -10.30833134 eV

  Self-consistency convergence accuracy:
  | Change of charge density      : 0.4152E-03
  | Change of sum of eigenvalues  : -.1373E+01 eV
  | Change of total energy        : 0.3645E+01 eV

  End self-consistency iteration #     1       :  max(cpu_time)    wall_clock(cpu1)
  | Time for this iteration                    :        0.640 s           0.641 s
  | Charge density update                      :        0.100 s           0.097 s
  | Density mixing                             :        0.004 s           0.003 s
  | Hartree multipole update                   :        0.072 s           0.071 s
  | Hartree multipole summation                :        0.264 s           0.263 s
  | Integration                                :        0.192 s           0.191 s
  | Fock matrix evaluation                     :        0.016 s           0.014 s
  | Solution of K.-S. eqns.                    :        0.004 s           0.001 s
  | Total energy evaluation                    :        0.000 s           0.000 s
------------------------------------------------------------

------------------------------------------------------------
          Begin self-consistency iteration #    2

  Date     :  20140812, Time     :  112801.183
------------------------------------------------------------
  Evaluating new KS density.
  Integration grid: deviation in total charge (<rho> - N_e) =  -3.108624E-15
  Pulay mixing of updated and previous charge densities.

  Evaluating partitioned Hartree potential by multipole expansion.
  | Analytical far-field extrapolation by fixed multipoles:
  | Hartree multipole sum: apparent total charge =  -0.134081E-06
  Summing up the Hartree potential.
  Time summed over all CPUs for potential: real work        1.033 s, elapsed        1.043 s
  | RMS charge density error from multipole expansion :   0.252575E-05

  Integrating Hamiltonian matrix: batch-based integration.
  Time summed over all CPUs for integration: real work        0.731 s, elapsed        0.745 s
  Evaluating the exchange matrix ... 

  Updating Kohn-Sham eigenvalues, eigenvectors, occupation numbers, and Fermi level.
  Solving generalized eigenproblem
  Updating Kohn-Sham eigenvalues and eigenfunctions.
  Solving real generalised eigenvalue problem by standard LAPACK (fast)
  Determining occupation numbers for Kohn-Sham eigenstates.
  | Chemical potential (Fermi level) in eV                 : -.58763569E+01
  | Error in electron count due to remaining E_F inaccuracy: 0.00000000E+00
  | Maximum occupation number of highest empty state:  0.00E+00

  Highest occupied state (VBM) at     -7.04037892 eV
  | Occupation number:      2.00000000

  Lowest unoccupied state (CBM) at    -4.71233482 eV
  | Occupation number:      0.00000000

  Overall HOMO-LUMO gap:      2.32804410 eV.

  Total energy components:
  | Sum of eigenvalues            :          -0.51745834 Ha         -14.08075784 eV
  | XC energy correction          :           0.31298766 Ha           8.51682767 eV
  | XC potential correction       :           0.00000000 Ha           0.00000000 eV
  | Free-atom electrostatic energy:          -0.56553587 Ha         -15.38901404 eV
  | Hartree energy correction     :           0.00010083 Ha           0.00274363 eV
  | Entropy correction            :           0.00000000 Ha           0.00000000 eV
  | ---------------------------
  | Total energy                  :          -0.76990572 Ha         -20.95020058 eV
  | Total energy, T -> 0          :          -0.76990572 Ha         -20.95020058 eV  <-- do not rely on this value for anything but (periodic) metals
  | Electronic free energy        :          -0.76990572 Ha         -20.95020058 eV

  Derived energy quantities:
  | Kinetic energy                :           0.81918929 Ha          22.29127466 eV
  | Electrostatic energy          :          -1.27610734 Ha         -34.72464757 eV
  | Energy correction for multipole
  | error in Hartree potential    :           0.00000002 Ha           0.00000054 eV
  | Sum of eigenvalues per atom                           :          -7.04037892 eV
  | Total energy (T->0) per atom                          :         -10.47510029 eV  <-- do not rely on this value for anything but (periodic) metals
  | Electronic free energy per atom                       :         -10.47510029 eV

  Self-consistency convergence accuracy:
  | Change of charge density      : 0.2943E-01
  | Change of sum of eigenvalues  : 0.4680E-02 eV
  | Change of total energy        : -.3335E+00 eV

  End self-consistency iteration #     2       :  max(cpu_time)    wall_clock(cpu1)
  | Time for this iteration                    :        0.636 s           0.636 s
  | Charge density update                      :        0.104 s           0.101 s
  | Density mixing                             :        0.004 s           0.004 s
  | Hartree multipole update                   :        0.068 s           0.069 s
  | Hartree multipole summation                :        0.264 s           0.262 s
  | Integration                                :        0.188 s           0.186 s
  | Fock matrix evaluation                     :        0.012 s           0.012 s
  | Solution of K.-S. eqns.                    :        0.004 s           0.001 s
  | Total energy evaluation                    :        0.000 s           0.000 s
------------------------------------------------------------

------------------------------------------------------------
          Begin self-consistency iteration #    3

  Date     :  20140812, Time     :  112801.819
------------------------------------------------------------
  Evaluating new KS density.
  Integration grid: deviation in total charge (<rho> - N_e) =  -8.881784E-16
  Pulay mixing of updated and previous charge densities.

  Evaluating partitioned Hartree potential by multipole expansion.
  | Analytical far-field extrapolation by fixed multipoles:
  | Hartree multipole sum: apparent total charge =  -0.124952E-06
  Summing up the Hartree potential.
  Time summed over all CPUs for potential: real work        1.040 s, elapsed        1.050 s
  | RMS charge density error from multipole expansion :   0.243534E-05

  Integrating Hamiltonian matrix: batch-based integration.
  Time summed over all CPUs for integration: real work        0.738 s, elapsed        0.762 s
  Evaluating the exchange matrix ... 

  Updating Kohn-Sham eigenvalues, eigenvectors, occupation numbers, and Fermi level.
  Solving generalized eigenproblem
  Updating Kohn-Sham eigenvalues and eigenfunctions.
  Solving real generalised eigenvalue problem by standard LAPACK (fast)
  Determining occupation numbers for Kohn-Sham eigenstates.
  | Chemical potential (Fermi level) in eV                 : -.58364495E+01
  | Error in electron count due to remaining E_F inaccuracy: 0.00000000E+00
  | Maximum occupation number of highest empty state:  0.00E+00

  Highest occupied state (VBM) at     -6.99961387 eV
  | Occupation number:      2.00000000

  Lowest unoccupied state (CBM) at    -4.67328523 eV
  | Occupation number:      0.00000000

  Overall HOMO-LUMO gap:      2.32632864 eV.

  Total energy components:
  | Sum of eigenvalues            :          -0.51446216 Ha         -13.99922773 eV
  | XC energy correction          :           0.31427210 Ha           8.55177882 eV
  | XC potential correction       :           0.00000000 Ha           0.00000000 eV
  | Free-atom electrostatic energy:          -0.56553587 Ha         -15.38901404 eV
  | Hartree energy correction     :          -0.00598870 Ha          -0.16296095 eV
  | Entropy correction            :           0.00000000 Ha           0.00000000 eV
  | ---------------------------
  | Total energy                  :          -0.77171464 Ha         -20.99942390 eV
  | Total energy, T -> 0          :          -0.77171464 Ha         -20.99942390 eV  <-- do not rely on this value for anything but (periodic) metals
  | Electronic free energy        :          -0.77171464 Ha         -20.99942390 eV

  Derived energy quantities:
  | Kinetic energy                :           0.82986826 Ha          22.58186435 eV
  | Electrostatic energy          :          -1.28731081 Ha         -35.02950944 eV
  | Energy correction for multipole
  | error in Hartree potential    :           0.00000000 Ha           0.00000011 eV
  | Sum of eigenvalues per atom                           :          -6.99961387 eV
  | Total energy (T->0) per atom                          :         -10.49971195 eV  <-- do not rely on this value for anything but (periodic) metals
  | Electronic free energy per atom                       :         -10.49971195 eV

  Self-consistency convergence accuracy:
  | Change of charge density      : 0.2963E-01
  | Change of sum of eigenvalues  : 0.8153E-01 eV
  | Change of total energy        : -.4922E-01 eV

  End self-consistency iteration #     3       :  max(cpu_time)    wall_clock(cpu1)
  | Time for this iteration                    :        0.640 s           0.640 s
  | Charge density update                      :        0.096 s           0.097 s
  | Density mixing                             :        0.008 s           0.008 s
  | Hartree multipole update                   :        0.068 s           0.067 s
  | Hartree multipole summation                :        0.264 s           0.264 s
  | Integration                                :        0.192 s           0.190 s
  | Fock matrix evaluation                     :        0.012 s           0.012 s
  | Solution of K.-S. eqns.                    :        0.000 s           0.001 s
  | Total energy evaluation                    :        0.004 s           0.000 s
------------------------------------------------------------

------------------------------------------------------------
          Begin self-consistency iteration #    4

  Date     :  20140812, Time     :  112802.459
------------------------------------------------------------
  Evaluating new KS density.
  Integration grid: deviation in total charge (<rho> - N_e) =   3.996803E-15
  Pulay mixing of updated and previous charge densities.

  Evaluating partitioned Hartree potential by multipole expansion.
  | Analytical far-field extrapolation by fixed multipoles:
  | Hartree multipole sum: apparent total charge =  -0.137764E-06
  Summing up the Hartree potential.
  Time summed over all CPUs for potential: real work        1.030 s, elapsed        1.039 s
  | RMS charge density error from multipole expansion :   0.111359E-04

  Integrating Hamiltonian matrix: batch-based integration.
  Time summed over all CPUs for integration: real work        0.730 s, elapsed        0.746 s
  Evaluating the exchange matrix ... 

  Updating Kohn-Sham eigenvalues, eigenvectors, occupation numbers, and Fermi level.
  Solving generalized eigenproblem
  Updating Kohn-Sham eigenvalues and eigenfunctions.
  Solving real generalised eigenvalue problem by standard LAPACK (fast)
  Determining occupation numbers for Kohn-Sham eigenstates.
  | Chemical potential (Fermi level) in eV                 : -.62682703E+01
  | Error in electron count due to remaining E_F inaccuracy: 0.00000000E+00
  | Maximum occupation number of highest empty state:  0.00E+00

  Highest occupied state (VBM) at     -7.44243778 eV
  | Occupation number:      2.00000000

  Lowest unoccupied state (CBM) at    -5.09410283 eV
  | Occupation number:      0.00000000

  Overall HOMO-LUMO gap:      2.34833494 eV.

  Total energy components:
  | Sum of eigenvalues            :          -0.54700912 Ha         -14.88487556 eV
  | XC energy correction          :           0.30066869 Ha           8.18161136 eV
  | XC potential correction       :           0.00000000 Ha           0.00000000 eV
  | Free-atom electrostatic energy:          -0.56553587 Ha         -15.38901404 eV
  | Hartree energy correction     :           0.05629197 Ha           1.53178234 eV
  | Entropy correction            :           0.00000000 Ha           0.00000000 eV
  | ---------------------------
  | Total energy                  :          -0.75558434 Ha         -20.56049590 eV
  | Total energy, T -> 0          :          -0.75558434 Ha         -20.56049590 eV  <-- do not rely on this value for anything but (periodic) metals
  | Electronic free energy        :          -0.75558434 Ha         -20.56049590 eV

  Derived energy quantities:
  | Kinetic energy                :           0.71026071 Ha          19.32717726 eV
  | Electrostatic energy          :          -1.16517635 Ha         -31.70606180 eV
  | Energy correction for multipole
  | error in Hartree potential    :           0.00000024 Ha           0.00000662 eV
  | Sum of eigenvalues per atom                           :          -7.44243778 eV
  | Total energy (T->0) per atom                          :         -10.28024795 eV  <-- do not rely on this value for anything but (periodic) metals
  | Electronic free energy per atom                       :         -10.28024795 eV

  Self-consistency convergence accuracy:
  | Change of charge density      : 0.3296E-01
  | Change of sum of eigenvalues  : -.8856E+00 eV
  | Change of total energy        : 0.4389E+00 eV

  End self-consistency iteration #     4       :  max(cpu_time)    wall_clock(cpu1)
  | Time for this iteration                    :        0.640 s           0.638 s
  | Charge density update                      :        0.096 s           0.095 s
  | Density mixing                             :        0.012 s           0.012 s
  | Hartree multipole update                   :        0.068 s           0.065 s
  | Hartree multipole summation                :        0.260 s           0.261 s
  | Integration                                :        0.188 s           0.187 s
  | Fock matrix evaluation                     :        0.016 s           0.015 s
  | Solution of K.-S. eqns.                    :        0.004 s           0.001 s
  | Total energy evaluation                    :        0.000 s           0.000 s
------------------------------------------------------------

------------------------------------------------------------
          Begin self-consistency iteration #    5

  Date     :  20140812, Time     :  112803.098
------------------------------------------------------------
  Evaluating new KS density.
  Integration grid: deviation in total charge (<rho> - N_e) =   8.881784E-16
  Pulay mixing of updated and previous charge densities.

  Evaluating partitioned Hartree potential by multipole expansion.
  | Analytical far-field extrapolation by fixed multipoles:
  | Hartree multipole sum: apparent total charge =  -0.136755E-06
  Summing up the Hartree potential.
  Time summed over all CPUs for potential: real work        1.041 s, elapsed        1.052 s
  | RMS charge density error from multipole expansion :   0.108363E-04

  Integrating Hamiltonian matrix: batch-based integration.
  Time summed over all CPUs for integration: real work        0.742 s, elapsed        0.769 s
  Evaluating the exchange matrix ... 

  Updating Kohn-Sham eigenvalues, eigenvectors, occupation numbers, and Fermi level.
  Solving generalized eigenproblem
  Updating Kohn-Sham eigenvalues and eigenfunctions.
  Solving real generalised eigenvalue problem by standard LAPACK (fast)
  Determining occupation numbers for Kohn-Sham eigenstates.
  | Chemical potential (Fermi level) in eV                 : -.62550965E+01
  | Error in electron count due to remaining E_F inaccuracy: 0.00000000E+00
  | Maximum occupation number of highest empty state:  0.00E+00

  Highest occupied state (VBM) at     -7.42861893 eV
  | Occupation number:      2.00000000

  Lowest unoccupied state (CBM) at    -5.08157403 eV
  | Occupation number:      0.00000000

  Overall HOMO-LUMO gap:      2.34704490 eV.

  Total energy components:
  | Sum of eigenvalues            :          -0.54599346 Ha         -14.85723787 eV
  | XC energy correction          :           0.29857586 Ha           8.12466264 eV
  | XC potential correction       :           0.00000000 Ha           0.00000000 eV
  | Free-atom electrostatic energy:          -0.56553587 Ha         -15.38901404 eV
  | Hartree energy correction     :           0.05461433 Ha           1.48613147 eV
  | Entropy correction            :           0.00000000 Ha           0.00000000 eV
  | ---------------------------
  | Total energy                  :          -0.75833914 Ha         -20.63545780 eV
  | Total energy, T -> 0          :          -0.75833914 Ha         -20.63545780 eV  <-- do not rely on this value for anything but (periodic) metals
  | Electronic free energy        :          -0.75833914 Ha         -20.63545780 eV

  Derived energy quantities:
  | Kinetic energy                :           0.70897607 Ha          19.29222049 eV
  | Electrostatic energy          :          -1.16873934 Ha         -31.80301566 eV
  | Energy correction for multipole
  | error in Hartree potential    :           0.00000023 Ha           0.00000639 eV
  | Sum of eigenvalues per atom                           :          -7.42861893 eV
  | Total energy (T->0) per atom                          :         -10.31772890 eV  <-- do not rely on this value for anything but (periodic) metals
  | Electronic free energy per atom                       :         -10.31772890 eV

  Self-consistency convergence accuracy:
  | Change of charge density      : 0.2311E-02
  | Change of sum of eigenvalues  : 0.2764E-01 eV
  | Change of total energy        : -.7496E-01 eV

  End self-consistency iteration #     5       :  max(cpu_time)    wall_clock(cpu1)
  | Time for this iteration                    :        0.664 s           0.662 s
  | Charge density update                      :        0.104 s           0.100 s
  | Density mixing                             :        0.020 s           0.019 s
  | Hartree multipole update                   :        0.072 s           0.072 s
  | Hartree multipole summation                :        0.264 s           0.264 s
  | Integration                                :        0.192 s           0.193 s
  | Fock matrix evaluation                     :        0.012 s           0.012 s
  | Solution of K.-S. eqns.                    :        0.004 s           0.002 s
  | Total energy evaluation                    :        0.000 s           0.000 s
------------------------------------------------------------

------------------------------------------------------------
          Begin self-consistency iteration #    6

  Date     :  20140812, Time     :  112803.761
------------------------------------------------------------
  Evaluating new KS density.
  Integration grid: deviation in total charge (<rho> - N_e) =   4.440892E-16
  Pulay mixing of updated and previous charge densities.

  Evaluating partitioned Hartree potential by multipole expansion.
  | Analytical far-field extrapolation by fixed multipoles:
  | Hartree multipole sum: apparent total charge =  -0.134982E-06
  Summing up the Hartree potential.
  Time summed over all CPUs for potential: real work        1.034 s, elapsed        1.045 s
  | RMS charge density error from multipole expansion :   0.104871E-04

  Integrating Hamiltonian matrix: batch-based integration.
  Time summed over all CPUs for integration: real work        0.763 s, elapsed        0.790 s
  Evaluating the exchange matrix ... 

  Updating Kohn-Sham eigenvalues, eigenvectors, occupation numbers, and Fermi level.
  Solving generalized eigenproblem
  Updating Kohn-Sham eigenvalues and eigenfunctions.
  Solving real generalised eigenvalue problem by standard LAPACK (fast)
  Determining occupation numbers for Kohn-Sham eigenstates.
  | Chemical potential (Fermi level) in eV                 : -.62407210E+01
  | Error in electron count due to remaining E_F inaccuracy: 0.00000000E+00
  | Maximum occupation number of highest empty state:  0.00E+00

  Highest occupied state (VBM) at     -7.41376047 eV
  | Occupation number:      2.00000000

  Lowest unoccupied state (CBM) at    -5.06768151 eV
  | Occupation number:      0.00000000

  Overall HOMO-LUMO gap:      2.34607896 eV.

  Total energy components:
  | Sum of eigenvalues            :          -0.54490138 Ha         -14.82752093 eV
  | XC energy correction          :           0.29907364 Ha           8.13820772 eV
  | XC potential correction       :           0.00000000 Ha           0.00000000 eV
  | Free-atom electrostatic energy:          -0.56553587 Ha         -15.38901404 eV
  | Hartree energy correction     :           0.05269288 Ha           1.43384632 eV
  | Entropy correction            :           0.00000000 Ha           0.00000000 eV
  | ---------------------------
  | Total energy                  :          -0.75867073 Ha         -20.64448094 eV
  | Total energy, T -> 0          :          -0.75867073 Ha         -20.64448094 eV  <-- do not rely on this value for anything but (periodic) metals
  | Electronic free energy        :          -0.75867073 Ha         -20.64448094 eV

  Derived energy quantities:
  | Kinetic energy                :           0.71327584 Ha          19.40922316 eV
  | Electrostatic energy          :          -1.17287293 Ha         -31.91549638 eV
  | Energy correction for multipole
  | error in Hartree potential    :           0.00000023 Ha           0.00000612 eV
  | Sum of eigenvalues per atom                           :          -7.41376047 eV
  | Total energy (T->0) per atom                          :         -10.32224047 eV  <-- do not rely on this value for anything but (periodic) metals
  | Electronic free energy per atom                       :         -10.32224047 eV

  Self-consistency convergence accuracy:
  | Change of charge density      : 0.1327E-02
  | Change of sum of eigenvalues  : 0.2972E-01 eV
  | Change of total energy        : -.9023E-02 eV

  End self-consistency iteration #     6       :  max(cpu_time)    wall_clock(cpu1)
  | Time for this iteration                    :        0.664 s           0.663 s
  | Charge density update                      :        0.100 s           0.097 s
  | Density mixing                             :        0.020 s           0.020 s
  | Hartree multipole update                   :        0.068 s           0.066 s
  | Hartree multipole summation                :        0.264 s           0.262 s
  | Integration                                :        0.200 s           0.198 s
  | Fock matrix evaluation                     :        0.020 s           0.017 s
  | Solution of K.-S. eqns.                    :        0.004 s           0.002 s
  | Total energy evaluation                    :        0.000 s           0.001 s
------------------------------------------------------------

------------------------------------------------------------
          Begin self-consistency iteration #    7

  Date     :  20140812, Time     :  112804.424
------------------------------------------------------------
  Evaluating new KS density.
  Integration grid: deviation in total charge (<rho> - N_e) =  -8.881784E-16
  Pulay mixing of updated and previous charge densities.

  Evaluating partitioned Hartree potential by multipole expansion.
  | Analytical far-field extrapolation by fixed multipoles:
  | Hartree multipole sum: apparent total charge =  -0.134702E-06
  Summing up the Hartree potential.
  Time summed over all CPUs for potential: real work        1.032 s, elapsed        1.039 s
  | RMS charge density error from multipole expansion :   0.104374E-04

  Integrating Hamiltonian matrix: batch-based integration.
  Time summed over all CPUs for integration: real work        0.728 s, elapsed        0.737 s
  Evaluating the exchange matrix ... 

  Updating Kohn-Sham eigenvalues, eigenvectors, occupation numbers, and Fermi level.
  Solving generalized eigenproblem
  Updating Kohn-Sham eigenvalues and eigenfunctions.
  Solving real generalised eigenvalue problem by standard LAPACK (fast)
  Determining occupation numbers for Kohn-Sham eigenstates.
  | Chemical potential (Fermi level) in eV                 : -.62387672E+01
  | Error in electron count due to remaining E_F inaccuracy: 0.00000000E+00
  | Maximum occupation number of highest empty state:  0.00E+00

  Highest occupied state (VBM) at     -7.41176988 eV
  | Occupation number:      2.00000000

  Lowest unoccupied state (CBM) at    -5.06576454 eV
  | Occupation number:      0.00000000

  Overall HOMO-LUMO gap:      2.34600533 eV.

  Total energy components:
  | Sum of eigenvalues            :          -0.54475507 Ha         -14.82353976 eV
  | XC energy correction          :           0.29922108 Ha           8.14221988 eV
  | XC potential correction       :           0.00000000 Ha           0.00000000 eV
  | Free-atom electrostatic energy:          -0.56553587 Ha         -15.38901404 eV
  | Hartree energy correction     :           0.05241991 Ha           1.42641842 eV
  | Entropy correction            :           0.00000000 Ha           0.00000000 eV
  | ---------------------------
  | Total energy                  :          -0.75864995 Ha         -20.64391550 eV
  | Total energy, T -> 0          :          -0.75864995 Ha         -20.64391550 eV  <-- do not rely on this value for anything but (periodic) metals
  | Electronic free energy        :          -0.75864995 Ha         -20.64391550 eV

  Derived energy quantities:
  | Kinetic energy                :           0.71403306 Ha          19.42982808 eV
  | Electrostatic energy          :          -1.17346193 Ha         -31.93152369 eV
  | Energy correction for multipole
  | error in Hartree potential    :           0.00000022 Ha           0.00000609 eV
  | Sum of eigenvalues per atom                           :          -7.41176988 eV
  | Total energy (T->0) per atom                          :         -10.32195775 eV  <-- do not rely on this value for anything but (periodic) metals
  | Electronic free energy per atom                       :         -10.32195775 eV

  Self-consistency convergence accuracy:
  | Change of charge density      : 0.1668E-03
  | Change of sum of eigenvalues  : 0.3981E-02 eV
  | Change of total energy        : 0.5654E-03 eV

  End self-consistency iteration #     7       :  max(cpu_time)    wall_clock(cpu1)
  | Time for this iteration                    :        0.648 s           0.647 s
  | Charge density update                      :        0.096 s           0.096 s
  | Density mixing                             :        0.024 s           0.024 s
  | Hartree multipole update                   :        0.068 s           0.068 s
  | Hartree multipole summation                :        0.260 s           0.261 s
  | Integration                                :        0.184 s           0.184 s
  | Fock matrix evaluation                     :        0.012 s           0.012 s
  | Solution of K.-S. eqns.                    :        0.004 s           0.002 s
  | Total energy evaluation                    :        0.000 s           0.000 s
------------------------------------------------------------

------------------------------------------------------------
          Begin self-consistency iteration #    8

  Date     :  20140812, Time     :  112805.071
------------------------------------------------------------
  Evaluating new KS density.
  Integration grid: deviation in total charge (<rho> - N_e) =   3.552714E-15
  Pulay mixing of updated and previous charge densities.

  Evaluating partitioned Hartree potential by multipole expansion.
  | Analytical far-field extrapolation by fixed multipoles:
  | Hartree multipole sum: apparent total charge =  -0.134701E-06
  Summing up the Hartree potential.
  Time summed over all CPUs for potential: real work        1.033 s, elapsed        1.039 s
  | RMS charge density error from multipole expansion :   0.104375E-04

  Integrating Hamiltonian matrix: batch-based integration.
  Time summed over all CPUs for integration: real work        0.734 s, elapsed        0.745 s
  Evaluating the exchange matrix ... 

  Updating Kohn-Sham eigenvalues, eigenvectors, occupation numbers, and Fermi level.
  Solving generalized eigenproblem
  Updating Kohn-Sham eigenvalues and eigenfunctions.
  Solving real generalised eigenvalue problem by standard LAPACK (fast)
  Determining occupation numbers for Kohn-Sham eigenstates.
  | Chemical potential (Fermi level) in eV                 : -.62387719E+01
  | Error in electron count due to remaining E_F inaccuracy: 0.00000000E+00
  | Maximum occupation number of highest empty state:  0.00E+00

  Highest occupied state (VBM) at     -7.41177564 eV
  | Occupation number:      2.00000000

  Lowest unoccupied state (CBM) at    -5.06576821 eV
  | Occupation number:      0.00000000

  Overall HOMO-LUMO gap:      2.34600743 eV.

  Total energy components:
  | Sum of eigenvalues            :          -0.54475550 Ha         -14.82355128 eV
  | XC energy correction          :           0.29923201 Ha           8.14251737 eV
  | XC potential correction       :           0.00000000 Ha           0.00000000 eV
  | Free-atom electrostatic energy:          -0.56553587 Ha         -15.38901404 eV
  | Hartree energy correction     :           0.05242018 Ha           1.42642559 eV
  | Entropy correction            :           0.00000000 Ha           0.00000000 eV
  | ---------------------------
  | Total energy                  :          -0.75863918 Ha         -20.64362237 eV
  | Total energy, T -> 0          :          -0.75863918 Ha         -20.64362237 eV  <-- do not rely on this value for anything but (periodic) metals
  | Electronic free energy        :          -0.75863918 Ha         -20.64362237 eV

  Derived energy quantities:
  | Kinetic energy                :           0.71405428 Ha          19.43040550 eV
  | Electrostatic energy          :          -1.17346144 Ha         -31.93151050 eV
  | Energy correction for multipole
  | error in Hartree potential    :           0.00000022 Ha           0.00000609 eV
  | Sum of eigenvalues per atom                           :          -7.41177564 eV
  | Total energy (T->0) per atom                          :         -10.32181119 eV  <-- do not rely on this value for anything but (periodic) metals
  | Electronic free energy per atom                       :         -10.32181119 eV

  Self-consistency convergence accuracy:
  | Change of charge density      : 0.4276E-06
  | Change of sum of eigenvalues  : -.1153E-04 eV
  | Change of total energy        : 0.2931E-03 eV

  End self-consistency iteration #     8       :  max(cpu_time)    wall_clock(cpu1)
  | Time for this iteration                    :        0.664 s           0.663 s
  | Charge density update                      :        0.104 s           0.104 s
  | Density mixing                             :        0.032 s           0.031 s
  | Hartree multipole update                   :        0.068 s           0.067 s
  | Hartree multipole summation                :        0.264 s           0.261 s
  | Integration                                :        0.188 s           0.187 s
  | Fock matrix evaluation                     :        0.012 s           0.012 s
  | Solution of K.-S. eqns.                    :        0.004 s           0.001 s
  | Total energy evaluation                    :        0.000 s           0.000 s
------------------------------------------------------------

------------------------------------------------------------
          Begin self-consistency iteration #    9

  Date     :  20140812, Time     :  112805.734
------------------------------------------------------------
  Evaluating new KS density.
  Integration grid: deviation in total charge (<rho> - N_e) =  -3.552714E-15
  Pulay mixing of updated and previous charge densities.

  Evaluating partitioned Hartree potential by multipole expansion.
  | Analytical far-field extrapolation by fixed multipoles:
  | Hartree multipole sum: apparent total charge =  -0.134701E-06
  Summing up the Hartree potential.
  Time summed over all CPUs for potential: real work        1.053 s, elapsed        1.105 s
  | RMS charge density error from multipole expansion :   0.104375E-04

  Integrating Hamiltonian matrix: batch-based integration.
  Time summed over all CPUs for integration: real work        0.798 s, elapsed        0.908 s
  Evaluating the exchange matrix ... 

  Updating Kohn-Sham eigenvalues, eigenvectors, occupation numbers, and Fermi level.
  Solving generalized eigenproblem
  Updating Kohn-Sham eigenvalues and eigenfunctions.
  Solving real generalised eigenvalue problem by standard LAPACK (fast)
  Determining occupation numbers for Kohn-Sham eigenstates.
  | Chemical potential (Fermi level) in eV                 : -.62387753E+01
  | Error in electron count due to remaining E_F inaccuracy: 0.00000000E+00
  | Maximum occupation number of highest empty state:  0.00E+00

  Highest occupied state (VBM) at     -7.41177962 eV
  | Occupation number:      2.00000000

  Lowest unoccupied state (CBM) at    -5.06577101 eV
  | Occupation number:      0.00000000

  Overall HOMO-LUMO gap:      2.34600861 eV.

  Total energy components:
  | Sum of eigenvalues            :          -0.54475579 Ha         -14.82355924 eV
  | XC energy correction          :           0.29923198 Ha           8.14251659 eV
  | XC potential correction       :           0.00000000 Ha           0.00000000 eV
  | Free-atom electrostatic energy:          -0.56553587 Ha         -15.38901404 eV
  | Hartree energy correction     :           0.05242044 Ha           1.42643266 eV
  | Entropy correction            :           0.00000000 Ha           0.00000000 eV
  | ---------------------------
  | Total energy                  :          -0.75863924 Ha         -20.64362403 eV
  | Total energy, T -> 0          :          -0.75863924 Ha         -20.64362403 eV  <-- do not rely on this value for anything but (periodic) metals
  | Electronic free energy        :          -0.75863924 Ha         -20.64362403 eV

  Derived energy quantities:
  | Kinetic energy                :           0.71405371 Ha          19.43039005 eV
  | Electrostatic energy          :          -1.17346096 Ha         -31.93149749 eV
  | Energy correction for multipole
  | error in Hartree potential    :           0.00000022 Ha           0.00000609 eV
  | Sum of eigenvalues per atom                           :          -7.41177962 eV
  | Total energy (T->0) per atom                          :         -10.32181201 eV  <-- do not rely on this value for anything but (periodic) metals
  | Electronic free energy per atom                       :         -10.32181201 eV

  Self-consistency convergence accuracy:
  | Change of charge density      : 0.3454E-06
  | Change of sum of eigenvalues  : -.7954E-05 eV
  | Change of total energy        : -.1658E-05 eV

  End self-consistency iteration #     9       :  max(cpu_time)    wall_clock(cpu1)
  | Time for this iteration                    :        0.712 s           0.711 s
  | Charge density update                      :        0.092 s           0.093 s
  | Density mixing                             :        0.032 s           0.032 s
  | Hartree multipole update                   :        0.068 s           0.067 s
  | Hartree multipole summation                :        0.280 s           0.278 s
  | Integration                                :        0.228 s           0.227 s
  | Fock matrix evaluation                     :        0.012 s           0.012 s
  | Solution of K.-S. eqns.                    :        0.004 s           0.001 s
  | Total energy evaluation                    :        0.000 s           0.000 s
------------------------------------------------------------

------------------------------------------------------------
          Begin self-consistency iteration #   10

  Date     :  20140812, Time     :  112806.445
------------------------------------------------------------
  Evaluating new KS density.
  Integration grid: deviation in total charge (<rho> - N_e) =  -1.332268E-15
  Pulay mixing of updated and previous charge densities.

  Evaluating partitioned Hartree potential by multipole expansion.
  | Analytical far-field extrapolation by fixed multipoles:
  | Hartree multipole sum: apparent total charge =  -0.134701E-06
  Summing up the Hartree potential.
  Time summed over all CPUs for potential: real work        1.037 s, elapsed        1.056 s
  | RMS charge density error from multipole expansion :   0.104376E-04

  Integrating Hamiltonian matrix: batch-based integration.
  Time summed over all CPUs for integration: real work        0.732 s, elapsed        0.759 s
  Evaluating the exchange matrix ... 

  Updating Kohn-Sham eigenvalues, eigenvectors, occupation numbers, and Fermi level.
  Solving generalized eigenproblem
  Updating Kohn-Sham eigenvalues and eigenfunctions.
  Solving real generalised eigenvalue problem by standard LAPACK (fast)
  Determining occupation numbers for Kohn-Sham eigenstates.
  | Chemical potential (Fermi level) in eV                 : -.62387798E+01
  | Error in electron count due to remaining E_F inaccuracy: 0.00000000E+00
  | Maximum occupation number of highest empty state:  0.00E+00

  Highest occupied state (VBM) at     -7.41178449 eV
  | Occupation number:      2.00000000

  Lowest unoccupied state (CBM) at    -5.06577510 eV
  | Occupation number:      0.00000000

  Overall HOMO-LUMO gap:      2.34600939 eV.

  Total energy components:
  | Sum of eigenvalues            :          -0.54475615 Ha         -14.82356899 eV
  | XC energy correction          :           0.29923188 Ha           8.14251376 eV
  | XC potential correction       :           0.00000000 Ha           0.00000000 eV
  | Free-atom electrostatic energy:          -0.56553587 Ha         -15.38901404 eV
  | Hartree energy correction     :           0.05242094 Ha           1.42644643 eV
  | Entropy correction            :           0.00000000 Ha           0.00000000 eV
  | ---------------------------
  | Total energy                  :          -0.75863919 Ha         -20.64362283 eV
  | Total energy, T -> 0          :          -0.75863919 Ha         -20.64362283 eV  <-- do not rely on this value for anything but (periodic) metals
  | Electronic free energy        :          -0.75863919 Ha         -20.64362283 eV

  Derived energy quantities:
  | Kinetic energy                :           0.71405273 Ha          19.43036332 eV
  | Electrostatic energy          :          -1.17346004 Ha         -31.93147239 eV
  | Energy correction for multipole
  | error in Hartree potential    :           0.00000022 Ha           0.00000609 eV
  | Sum of eigenvalues per atom                           :          -7.41178449 eV
  | Total energy (T->0) per atom                          :         -10.32181142 eV  <-- do not rely on this value for anything but (periodic) metals
  | Electronic free energy per atom                       :         -10.32181142 eV

  Self-consistency convergence accuracy:
  | Change of charge density      : 0.2422E-06
  | Change of sum of eigenvalues  : -.9747E-05 eV
  | Change of total energy        : 0.1198E-05 eV

  End self-consistency iteration #    10       :  max(cpu_time)    wall_clock(cpu1)
  | Time for this iteration                    :        0.672 s           0.671 s
  | Charge density update                      :        0.100 s           0.098 s
  | Density mixing                             :        0.040 s           0.038 s
  | Hartree multipole update                   :        0.068 s           0.066 s
  | Hartree multipole summation                :        0.264 s           0.265 s
  | Integration                                :        0.192 s           0.190 s
  | Fock matrix evaluation                     :        0.016 s           0.012 s
  | Solution of K.-S. eqns.                    :        0.000 s           0.002 s
  | Total energy evaluation                    :        0.000 s           0.000 s
------------------------------------------------------------

------------------------------------------------------------
          Begin self-consistency iteration #   11

  Date     :  20140812, Time     :  112807.116
------------------------------------------------------------
  Evaluating new KS density.
  Integration grid: deviation in total charge (<rho> - N_e) =  -2.664535E-15
  Pulay mixing of updated and previous charge densities.

  Evaluating partitioned Hartree potential by multipole expansion.
  | Analytical far-field extrapolation by fixed multipoles:
[...]

  Integrating Hamiltonian matrix: batch-based integration.
  Time summed over all CPUs for integration: real work        0.730 s, elapsed        0.744 s
  Evaluating the exchange matrix ... 

  Updating Kohn-Sham eigenvalues, eigenvectors, occupation numbers, and Fermi level.
  Solving generalized eigenproblem
  Updating Kohn-Sham eigenvalues and eigenfunctions.
  Solving real generalised eigenvalue problem by standard LAPACK (fast)
  Determining occupation numbers for Kohn-Sham eigenstates.
  | Chemical potential (Fermi level) in eV                 : -.62387798E+01
  | Error in electron count due to remaining E_F inaccuracy: 0.00000000E+00
  | Maximum occupation number of highest empty state:  0.00E+00

  Highest occupied state (VBM) at     -7.41178451 eV
  | Occupation number:      2.00000000

  Lowest unoccupied state (CBM) at    -5.06577514 eV
  | Occupation number:      0.00000000

  Overall HOMO-LUMO gap:      2.34600937 eV.

  Total energy components:
  | Sum of eigenvalues            :          -0.54475615 Ha         -14.82356902 eV
  | XC energy correction          :           0.29923184 Ha           8.14251276 eV
  | XC potential correction       :           0.00000000 Ha           0.00000000 eV
  | Free-atom electrostatic energy:          -0.56553587 Ha         -15.38901404 eV
  | Hartree energy correction     :           0.05242095 Ha           1.42644662 eV
  | Entropy correction            :           0.00000000 Ha           0.00000000 eV
  | ---------------------------
  | Total energy                  :          -0.75863923 Ha         -20.64362369 eV
  | Total energy, T -> 0          :          -0.75863923 Ha         -20.64362369 eV  <-- do not rely on this value for anything but (periodic) metals
  | Electronic free energy        :          -0.75863923 Ha         -20.64362369 eV

  Derived energy quantities:
  | Kinetic energy                :           0.71405264 Ha          19.43036089 eV
  | Electrostatic energy          :          -1.17346002 Ha         -31.93147183 eV
  | Energy correction for multipole
  | error in Hartree potential    :           0.00000022 Ha           0.00000609 eV
  | Sum of eigenvalues per atom                           :          -7.41178451 eV
  | Total energy (T->0) per atom                          :         -10.32181185 eV  <-- do not rely on this value for anything but (periodic) metals
  | Electronic free energy per atom                       :         -10.32181185 eV

  Self-consistency convergence accuracy:
  | Change of charge density      : 0.5730E-08
  | Change of sum of eigenvalues  : -.3621E-07 eV
  | Change of total energy        : -.8597E-06 eV

  Writing Kohn-Sham eigenvalues.

  State    Occupation    Eigenvalue [Ha]    Eigenvalue [eV]
      1       2.00000          -0.272378           -7.41178
      2       0.00000          -0.186164           -5.06578
      3       0.00000           0.177892            4.84069
      4       0.00000           0.198386            5.39837
      5       0.00000           0.385943           10.50203
      6       0.00000           0.387259           10.53784
      7       0.00000           0.387259           10.53784
      8       0.00000           0.388237           10.56447
      9       0.00000           0.388237           10.56447
     10       0.00000           0.389922           10.61032
     11       0.00000           0.954940           25.98525
     12       0.00000           0.982395           26.73232
     13       0.00000           1.206869           32.84057
     14       0.00000           1.206885           32.84102
     15       0.00000           1.206885           32.84102
     16       0.00000           1.206898           32.84136
     17       0.00000           1.206898           32.84136
     18       0.00000           1.206904           32.84154
     19       0.00000           1.206904           32.84154
     20       0.00000           1.207008           32.84436
     21       0.00000           1.207008           32.84436
     22       0.00000           1.207239           32.85064
     23       0.00000           1.830384           49.80729
     24       0.00000           1.832488           49.86455
     25       0.00000           1.832488           49.86455
     26       0.00000           1.832849           49.87437
     27       0.00000           1.832849           49.87437
     28       0.00000           1.835639           49.95029
     29       0.00000           3.480067           94.69744
     30       0.00000           3.480067           94.69744
     31       0.00000           3.480067           94.69744
     32       0.00000           3.480067           94.69744
     33       0.00000           3.480113           94.69870
     34       0.00000           3.480113           94.69870
     35       0.00000           3.480115           94.69875
     36       0.00000           3.480115           94.69875
     37       0.00000           3.480141           94.69946
     38       0.00000           3.480141           94.69946
     39       0.00000           3.480144           94.69952
     40       0.00000           3.480147           94.69963
     41       0.00000           3.480147           94.69963
     42       0.00000           3.480159           94.69994
     43       0.00000           3.824637          104.07368
     44       0.00000           3.872317          105.37112
     45       0.00000           5.324726          144.89316
     46       0.00000           5.324900          144.89791
     47       0.00000           5.324900          144.89791
     48       0.00000           5.324911          144.89820
     49       0.00000           5.324911          144.89820
     50       0.00000           5.324918          144.89838
     51       0.00000           5.324918          144.89838
     52       0.00000           5.325013          144.90096
     53       0.00000           5.325013          144.90096
     54       0.00000           5.325435          144.91247
     55       0.00000           8.566197          233.09808
     56       0.00000           8.571760          233.24945
     57       0.00000           8.571760          233.24945
     58       0.00000           8.572682          233.27454
     59       0.00000           8.572682          233.27454
     60       0.00000           8.579614          233.46318
     61       0.00000          21.778883          592.63355
     62       0.00000          21.942944          597.09789

  Highest occupied state (VBM) at     -7.41178451 eV
  | Occupation number:      2.00000000

  Lowest unoccupied state (CBM) at    -5.06577514 eV
  | Occupation number:      0.00000000

  Overall HOMO-LUMO gap:      2.34600937 eV.

  Self-consistency cycle converged.

  End self-consistency iteration #    11       :  max(cpu_time)    wall_clock(cpu1)
  | Time for this iteration                    :        0.676 s           0.678 s
  | Charge density update                      :        0.100 s           0.101 s
  | Density mixing                             :        0.044 s           0.043 s
  | Hartree multipole update                   :        0.072 s           0.070 s
  | Hartree multipole summation                :        0.264 s           0.262 s
  | Integration                                :        0.188 s           0.186 s
  | Fock matrix evaluation                     :        0.016 s           0.013 s
  | Solution of K.-S. eqns.                    :        0.004 s           0.001 s
  | Total energy evaluation                    :        0.000 s           0.001 s
------------------------------------------------------------

  Energy and forces in a compact form:
  | Total energy uncorrected      :         -0.206436236906457E+02 eV
  | Total energy corrected        :         -0.206436236906457E+02 eV  <-- do not rely on this value for anything but (periodic) metals
  | Electronic free energy        :         -0.206436236906457E+02 eV

  ------------------------------------ 
  Start decomposition of the XC Energy 
  ------------------------------------ 
  Hartree-Fock part   :          0.299231844 Ha              8.142512756 eV
  ------------------------------------ 
  X Energy            :          0.299231844 Ha              8.142512756 eV
  C Energy GGA        :          0.000000000 Ha              0.000000000 eV
  Total XC Energy     :          0.299231844 Ha              8.142512756 eV
  LDA X and C from self-consistent density 
  X Energy LDA        :         -0.350626883 Ha             -9.541042927 eV
  C Energy LDA        :         -0.075146254 Ha             -2.044833604 eV
  ------------------------------------ 
  End decomposition of the XC Energy 
  ------------------------------------ 
---------------------------------------------
---------------------------------------------
 | MP2 calculation starts ...
---------------------------------------------

  | Note : Resolution of identity applied 
  | Note : Non spin-polarized system 
---------------------------------------------
  | Homo level                                        1
  | Lumo level                                        2
  | Total Number of states                           62
  | Number of k-points                                1
  | Homo-Lumo Gap                            0.08621426 Ha          2.34600937 eV
---------------------------------------------
  The ovlp_3KS matrix takes another      0 MiB x      4 procs =       0.000 GiB.


---------------------------------------------
| Sum of correlation terms 
---------------------------------------------
  | Pair state     1                    :         -8.21141971 eV         -8.21141971 eV

---------------------------------------------
| Correlation energy spectrum 
---------------------------------------------
  |     2    :         -0.18616381        -0.27596808
  |     3    :          0.17789193        -0.00153426
  |     4    :          0.19838644        -0.00876835
  |     5    :          0.38594266        -0.00100895
  |     6    :          0.38725860        -0.00098241
  |     7    :          0.38725860        -0.00098241
  |     8    :          0.38823718        -0.00094032
  |     9    :          0.38823718        -0.00094032
  |    10    :          0.38992219        -0.00093354
  |    11    :          0.95494038        -0.00135270
  |    12    :          0.98239479        -0.00294809
  |    13    :          1.20686869        -0.00010263
  |    14    :          1.20688536        -0.00010114
  |    15    :          1.20688536        -0.00010114
  |    16    :          1.20689797        -0.00010194
  |    17    :          1.20689797        -0.00010194
  |    18    :          1.20690444        -0.00010095
  |    19    :          1.20690444        -0.00010095
  |    20    :          1.20700814        -0.00010107
  |    21    :          1.20700814        -0.00010107
  |    22    :          1.20723900        -0.00010137
  |    23    :          1.83038431        -0.00046979
  |    24    :          1.83248840        -0.00046869
  |    25    :          1.83248840        -0.00046869
  |    26    :          1.83284929        -0.00046898
  |    27    :          1.83284929        -0.00046898
  |    28    :          1.83563934        -0.00046880
  |    29    :          3.48006687        -0.00002042
  |    30    :          3.48006687        -0.00002042
  |    31    :          3.48006711        -0.00002042
  |    32    :          3.48006711        -0.00002042
  |    33    :          3.48011337        -0.00002047
  |    34    :          3.48011337        -0.00002047
  |    35    :          3.48011507        -0.00002046
  |    36    :          3.48011507        -0.00002046
  |    37    :          3.48014115        -0.00002050
  |    38    :          3.48014115        -0.00002050
  |    39    :          3.48014353        -0.00002052
  |    40    :          3.48014738        -0.00002049
  |    41    :          3.48014738        -0.00002049
  |    42    :          3.48015887        -0.00002050
  |    43    :          3.82463734        -0.00027427
  |    44    :          3.87231749        -0.00032488
  |    45    :          5.32472587        -0.00003871
  |    46    :          5.32490036        -0.00003870
  |    47    :          5.32490036        -0.00003870
  |    48    :          5.32491081        -0.00003868
  |    49    :          5.32491081        -0.00003868
  |    50    :          5.32491756        -0.00003868
  |    51    :          5.32491756        -0.00003868
  |    52    :          5.32501251        -0.00003872
  |    53    :          5.32501251        -0.00003872
  |    54    :          5.32543548        -0.00003874
  |    55    :          8.56619685        -0.00004763
  |    56    :          8.57175960        -0.00004755
  |    57    :          8.57175960        -0.00004755
  |    58    :          8.57268177        -0.00004746
  |    59    :          8.57268177        -0.00004746
  |    60    :          8.57961429        -0.00004733
  |    61    :         21.77888283        -0.00000951
  |    62    :         21.94294398        -0.00000938
---------------------------------------------
 
 
 
          ---------------------------------------------
          | MP2 calculation comes to finish ...  
 
          ---------------------------------------------
          | Total time for calculating MP2 correction              :        0.000 s

          ---------------------------------------------

---------------------------------------------
  | HF Energy                      :         -0.75863923 Ha        -20.64362369 eV
  | MP2 correction                 :         -0.30176413 Ha         -8.21141971 eV
---------------------------------------------
  | Total Energy + MP2 correction  :         -1.06040335 Ha        -28.85504340 eV
---------------------------------------------

------------------------------------------------------------------------------
  Final output of selected total energy values:

  The following output summarizes some interesting total energy values
  at the end of a run (AFTER all relaxation, molecular dynamics, etc.).

  | Total energy of the DFT / Hartree-Fock s.c.f. calculation      :            -20.643623691 eV
  | Final zero-broadening corrected energy (caution - metals only) :            -20.643623691 eV
  | Total energy after the post-s.c.f. correlation calculation     :            -28.855043397 eV
  | For reference only, the value of 1 Hartree used in FHI-aims is :             27.211384500 eV

  Before relying on these values, please be sure to understand exactly which
  total energy value is referred to by a given number. Different objects may
  all carry the same name 'total energy'. Definitions:

  Total energy of the DFT / Hartree-Fock s.c.f. calculation:
  | Note that this energy does not include ANY quantities calculated after the
  | s.c.f. cycle, in particular not ANY RPA, MP2, etc. many-body perturbation terms.

  Final zero-broadening corrected energy:
  | For metallic systems only, a broadening of the occupation numbers at the Fermi
  | level can be extrapolated back to zero broadening by an electron-gas inspired
  | formula. For all systems that are not real metals, this value can be
  | meaningless and should be avoided.

  Total energy of the post-s.c.f. correlation calculation        :
  | The actual meaning of this energy depends on the setting for the 'total_energy_method'
  | keyword (MP2, RPA, rPT2, etc). If not sure, compare to the results listed above.

------------------------------------------------------------------------------

  Methods described in the following list of references were used in this FHI-aims run.
  If you publish the results, please make sure to cite these reference if they apply.
  FHI-aims is an academic code, and for our developers (often, Ph.D. students
  and postdocs), scientific credit in the community is essential.
  Thank you for helping us!

  For any use of FHI-aims, please cite:

    Volker Blum, Ralf Gehrke, Felix Hanke, Paula Havu, Ville Havu,
    Xinguo Ren, Karsten Reuter, and Matthias Scheffler,
    "Ab initio molecular simulations with numeric atom-centered orbitals"
    Computer Physics Communications 180, 2175-2196 (2009).
    http://dx.doi.org/10.1016/j.cpc.2009.06.022

  For Hartree-Fock, hybrid functionals, or many-body perturbation theory used in your run, please cite:

    Xinguo Ren, Patrick Rinke, Volker Blum, Juergen Wieferink, Alex Tkatchenko,
    Andrea Sanfilippo, Karsten Reuter, and Matthias Scheffler,
    "Resolution-of-identity approach to Hartree-Fock, hybrid density functionals,
     RPA, MP2, and GW with numeric atom-centered orbital basis functions"
    New Journal of Physics 14, 053020 (2012).
    http://dx.doi.org/10.1088/1367-2630/14/5/053020

  For the NAO-VCC-nZ basis sets used in this calculation, please cite:

    Igor Ying Zhang, Xinguo Ren, Patrick Rinke, Volker Blum, and Matthias Scheffler,
    "Numeric atom-centered-orbital basis sets with valence-correlation consistency from H to Ar"
    New Journal of Physics 15, 123033 (2013).
    http://dx.doi.org/10.1088/1367-2630/15/12/123033

  For the real-space grid partitioning and parallelization used in this calculation, please cite:

    Ville Havu, Volker Blum, Paula Havu, and Matthias Scheffler,
    "Efficient O(N) integration for all-electron electronic
    structure calculation using numerically tabulated basis functions"
    Journal of Computational Physics 228, 8367-8379 (2009).
    http://dx.doi.org/10.1016/j.jcp.2009.08.008

  Of course, there are many other important community references, e.g., those cited in the
  above references. Our list is limited to references that describe implementations in the FHI-aims
  code. The reason is purely practical (length of this list) - please credit others as well.

------------------------------------------------------------
          Leaving FHI-aims.
          Date     :  20140812, Time     :  112807.830

          Computational steps:
          | Number of self-consistency cycles          :           11

          Detailed time accounting                     :  max(cpu_time)    wall_clock(cpu1)
          | Total time                                 :       27.346 s          27.385 s
          | Preparation time                           :        0.192 s           0.205 s
          | Grid partitioning                          :        0.276 s           0.275 s
          | Preloading free-atom quantities on grid    :        0.068 s           0.067 s
          | Free-atom superposition energy             :        0.036 s           0.035 s
          | Total time for integrations                :        2.468 s           2.454 s
          | Product basis setup: Total time            :        0.000 s           0.000 s
          | Product basis: | 3-center integrations     :       18.569 s          18.589 s
          | Product basis: | 2-center integrations     :        0.260 s           0.259 s
          | Product basis: | 2-center linear algebra   :        0.108 s           0.107 s
          | Product basis: | 3-center x 2-center       :        0.032 s           0.032 s
          | Total time evaluating exchange matrix      :        0.156 s           0.143 s
          | Transforming ovlp_3fn to ovlp_3KS          :        0.012 s           0.012 s
          | Total time for solution of K.-S. equations :        0.040 s           0.019 s
          | Total time for density update              :        1.092 s           1.079 s
          | Total time for mixing                      :        0.240 s           0.234 s
          | Total time for Hartree multipole update    :        0.760 s           0.748 s
          | Total time for Hartree multipole sum       :        2.912 s           2.903 s
          | Total time for total energy evaluation     :        0.004 s           0.003 s

          Have a nice day.
------------------------------------------------------------
