  MPI-parallelism will be employed.
------------------------------------------------------------
          Invoking FHI-aims ...
          Version 072414
          Compiled on 2014/08/06 at 00:00:04 on host theobook58.

          When using FHI-aims, please cite the following reference:

          Volker Blum, Ralf Gehrke, Felix Hanke, Paula Havu,
          Ville Havu, Xinguo Ren, Karsten Reuter, and Matthias Scheffler,
          'Ab Initio Molecular Simulations with Numeric Atom-Centered Orbitals: FHI-aims',
          Computer Physics Communications 180, 2175-2196 (2009)

          For any questions about FHI-aims, please visit the aimsclub website
          with its forums and wiki. Contributions to both the forums and the
          wiki are warmly encouraged - they are for you, and everyone is welcome there.

------------------------------------------------------------

  Date     :  20140812, Time     :  112858.454
  Time zero on CPU 1             :   0.160000000000000E-01  s.
  Internal wall clock time zero  :           177074938.454  s.

  Using        4 parallel tasks.
  Task        0 on host theobook58 reporting.
  Task        1 on host theobook58 reporting.
  Task        2 on host theobook58 reporting.
  Task        3 on host theobook58 reporting.

  Performing system and environment tests:
  | Environment variable OMP_NUM_THREADS correctly set to 1.
  | Stacksize not measured: no C compiler
  | Checking for scalapack...
  | No scalapack compiled in.

  Obtaining array dimensions for all initial allocations:
  
  -----------------------------------------------------------------------
  Parsing control.in (first pass over file, find array dimensions only).
  The contents of control.in will be repeated verbatim below
  unless switched off by setting 'verbatim_writeout .false.' .
  in the first line of control.in .
  -----------------------------------------------------------------------
  
  xc                      hf
  total_energy_method     mp2
  relativistic            none
  occupation_type         integer 0.0001
  mixer                   pulay
  n_max_pulay             10
  charge_mix_param        0.6
  sc_iter_limit           600
  sc_accuracy_rho         1E-6
  sc_accuracy_eev         1E-4
  sc_accuracy_etot        1E-6
  override_illconditioning .true.
  charge                  0
  ################################################################################
  #
  #  FHI-aims code project
  # Igor Ying Zhang and Xinguo Ren, Fritz Haber Institute Berlin, 2012
  #
  #  Suggested "NAO-VCC-4Z" defaults for H atom (to be pasted into control.in file)
  #
  #  Please cite:
  #
  #  Igor Ying Zhang, Xinguo Ren, Patrick Rinke, Volker Blum, and Matthias Scheffler,
  #  "Numeric atom-centered-orbital basis sets with valence-correlation consistency from H to Ar"
  #  New Journal of Physics 15, 123033 (2013).
  #  http://dx.doi.org/10.1088/1367-2630/15/12/123033
  #
  ################################################################################
    species        H
  #     set basis set reference for FHI-aims output
      cite_reference NAO-VCC-2013
  #     global species definitions
      nucleus             1
      mass                1.00794
  #
      l_hartree           6
  #
      cut_pot             4.0  2.0  1.0
      basis_dep_cutoff    0e-4
  #
      radial_base         24 7.0
  radial_multiplier               6
      angular_grids       specified
        division   0.1930   50
        division   0.3175  110
        division   0.4293  194
        division   0.5066  302
        division   0.5626  434
        division   0.5922  590
  #      division   0.6227  974
  #      division   0.6868 1202
        outer_grid  770
  #      outer_grid  434
  ################################################################################
  #
  #  Definition of "minimal" basis
  #
  ################################################################################
  #     valence basis states
      valence      1  s   1.
  #     ion occupancy
      ion_occ      1  s   0.5
  ################################################################################
  
  
   basis_acc              1e-04
  #============================================
  # Optimization in      H for       NAO-VCC-4Z
  #============================================
  # (sp) correlation set
   hydro     1     s      1.15655525
   hydro     1     s      1.68684502
   hydro     1     s      2.46027686
   hydro     2     p      2.92145897
   hydro     2     p      4.14501835
   hydro     2     p      5.88102632
  # polarization set
   hydro     3     d      6.41446874
   hydro     3     d      7.67536483
   hydro     4     f     10.80870049
  # (sp) enhanced minimal set
   hydro     1     s      3.58833335
  
  -----------------------------------------------------------------------
  Completed first pass over input file control.in .
  -----------------------------------------------------------------------
  
  
  -----------------------------------------------------------------------
  Parsing geometry.in (first pass over file, find array dimensions only).
  The contents of geometry.in will be repeated verbatim below
  unless switched off by setting 'verbatim_writeout .false.' .
  in the first line of geometry.in .
  -----------------------------------------------------------------------
  
  atom             0.0             0.0             0.0    H
  atom             0.0             0.0             7.4    H
  
  -----------------------------------------------------------------------
  Completed first pass over input file geometry.in .
  -----------------------------------------------------------------------
  

  Basic array size parameters:
  | Number of species                 :        1
  | Number of atoms                   :        2
  | Max. basis fn. angular momentum   :        3
  | Max. atomic/ionic basis occupied n:        1
  | Max. number of basis fn. types    :        2
  | Max. radial fns per species/type  :       10
  | Max. logarithmic grid size        :     1131
  | Max. radial integration grid size :      149
  | Max. angular integration grid size:      770
  | Max. angular grid division number :        8
  | Radial grid for Hartree potential :     1131
  | Number of spin channels           :        1

------------------------------------------------------------
          Reading file control.in.
------------------------------------------------------------
 
  Hartree-Fock calculation starts ...... 
  Attention: this version of Hartree-Fock employs an auxiliary basis. 
 
  MP2 correlation energy calculation will be started after the DFT/HF calculation.
  Non-relativistic treatment of kinetic energy.
  Occupation type: Integer occupation.
  Using pulay charge density mixing.
  Pulay mixing - number of memorized iterations:   10
  Charge density mixing - mixing parameter:     0.6000
  Maximum number of s.-c. iterations  :   600
  Convergence accuracy of self-consistent charge density: 0.1000E-05
  Convergence accuracy of sum of eigenvalues: 0.1000E-03
  Convergence accuracy of total energy: 0.1000E-05
  override_illconditioning: Explicitly overriding any built-in checks for an ill-conditioned overlap matrix.
  *** WARNING: If you use this flag, you should really know what you are doing.
  *** DO NOT keep this flag set by default in all your control.in files.
  Charge =   0.000000E+00: Neutral system requested explicitly.
 
  Reading configuration options for species H                   .
  | Found nuclear charge :   1.0000
  | Found atomic mass :    1.00794000000000      amu
  | Found l_max for Hartree potential  :   6
  | Found cutoff potl. onset [A], width [A], scale factor :    4.00000    2.00000    1.00000
  | Threshold for basis-dependent cutoff potential is   0.000000E+00
  | Found data for basic radial integration grid :    24 points, outermost radius =    7.000 A
  | Found multiplier for basic radial grid :   6
  | Found angular grid specification: user-specified.
  | Specified grid contains     7 separate shells.
  | Check grid settings after all constraints further below.
  | Found free-atom valence shell :  1 s   1.000
  | No ionic wave fns used. Skipping ion_occ.
  | Found basis singularity cutoff : 0.1000E-03
  | Found hydrogenic basis function :  1 s   1.157
  | Found hydrogenic basis function :  1 s   1.687
  | Found hydrogenic basis function :  1 s   2.460
  | Found hydrogenic basis function :  2 p   2.921
  | Found hydrogenic basis function :  2 p   4.145
  | Found hydrogenic basis function :  2 p   5.881
  | Found hydrogenic basis function :  3 d   6.414
  | Found hydrogenic basis function :  3 d   7.675
  | Found hydrogenic basis function :  4 f  10.809
  | Found hydrogenic basis function :  1 s   3.588
  Species H                   : Missing cutoff potential type.
  Defaulting to exp(1/x)/(1-x)^2 type cutoff potential.
  Species H : No 'logarithmic' tag. Using default grid for free atom:
  | Default logarithmic grid data [bohr] : 0.1000E-03 0.1000E+03 0.1012E+01
  Species H                   : Using default innermost maximum threshold i_radial=  2 for radial functions.
  Species H                   : Default cutoff onset for free atom density etc. is infinite
  since the product basis is used (hybrid functionals, Hartree-Fock, GW etc.).
  Species H                   : Basic radial grid will be enhanced according to radial_multiplier =   6, to contain   149 grid points.
 
  Finished reading input file 'control.in'. Consistency checks are next.
 
  Species H: Using default value for prodbas_acc =   1.000000E-02.
  Species H: Using default value max_l_prodbas =     5.
  Target number of points in a grid batch is not set. Defaulting to  100
  Method for grid partitioning is not set. Defaulting to parallel hash+maxmin partitioning.
  Batch size limit is not set. Defaulting to    200
  By default, will store active basis functions for each batch.
  If in need of memory, prune_basis_once .false. can be used to disable this option.
  communication_type for Hartree potential was not specified.
  Defaulting to calc_hartree .
  Pulay mixer: Number of initial linear mixing iterations not set.
  Defaulting to    0 iterations.
  Work space size for distributed Hartree potential not set.
  Defaulting to   0.200000E+03 MB.
  Algorithm-dependent basis array size parameters:
  | n_max_pulay                         :       10
  Calculation of forces was not defined in control.in. No forces will be calculated.
  Geometry relaxation not requested: no relaxation will be performed.
  No accuracy limit for integral partition fn. given. Defaulting to 0.1000E-14.
  No threshold value for u(r) in integrations given. Defaulting to 0.1000E-05.
  No accuracy for occupation numbers given. Defaulting to 0.1000E-07.
  No threshold value for occupation numbers given. Defaulting to 0.0000E+00.
  No accuracy for fermi level given. Defaulting to 0.1000E-19.
  Maximum # of iterations to find E_F not set. Defaulting to  200.
  Preferred method for the eigenvalue solver ('KS_method') not specified in 'control.in'.
  Calling blacs routine to test compilation state
  The best choice would be 'elpa', but your version of FHI-aims is compiled without scalapack support.
  Defaulting to 'lapack_fast' instead (serial solution, time will not improve with more CPUs).
  Will not use alltoall communication since running on < 1024 CPUs.
  Threshold for basis singularities not set.
  Default threshold for basis singularities: 0.1000E-04
  partition_type (choice of integration weights) for integrals was not specified.
  | Using a version of the partition function of Stratmann and coworkers ('stratmann_smoother').
  | At each grid point, the set of atoms used to build the partition table is smoothly restricted to
  | only those atoms whose free-atom density would be non-zero at that grid point.
  Partitioning for Hartree potential was not defined. Using partition_type for integrals.
  | Adjusted default value of keyword multip_moments_threshold to:       0.10000000E-11
  | This value may affect high angular momentum components of the Hartree potential in periodic systems.
  Spin handling was not defined in control.in. Defaulting to unpolarized case.
  Threshold for auxiliary basis singularities not set.
  Default threshold for auxiliary basis singularities: 0.1000E-04
  No q(lm)/r^(l+1) cutoff set for long-range Hartree potential.
  | Using default value of  0.100000E-09 .
  | Verify using the multipole_threshold keyword.
  Defaulting to new monopole extrapolation.
  Density update method: automatic selection selected.
  Default to 1D ("use_logsbt") integrations for auxiliary 2-center integrals.
  Default onset of logarithmic r-grid for SBT is-38.000000000000
  Default onset of logarithmic k-grid for SBT is-25.000000000000
  Default range of logarithmic r- and k-grid for SBT is 45.000000000000
  Default number of logarithmic r- and k-grid for SBT is  4096
------------------------------------------------------------


------------------------------------------------------------
          Reading geometry description geometry.in.
------------------------------------------------------------
  Input structure read successfully.
  The structure contains        2 atoms,  and a total of          2.000 electrons.

  Input geometry:
  | No unit cell requested.
  | Atomic structure:
  |       Atom                x [A]            y [A]            z [A]
  |    1: Species H              0.000000         0.000000         0.000000
  |    2: Species H              0.000000         0.000000         7.400000
  |

  | The smallest distance between any two atoms is         7.40000000 AA.
  |
  | The first atom of this pair is atom number                      1 .
  | The second atom of this pair is atom number                     2 .

  Number of empty states per atom not set in control.in .
  | Since you are using a method that relies on the unoccupied spectrum
  | (MP2,GW,RPA et al.), will use the full Hamiltonian size (see below)
  | as the max. possible number of states (occupied plus empty).

  Structure-dependent array size parameters: 
  | Maximum number of distinct radial functions  :       11
  | Maximum number of basis functions            :       62
  | Number of Kohn-Sham states (occupied + empty):       62
------------------------------------------------------------

------------------------------------------------------------
          Preparing all fixed parts of the calculation.
------------------------------------------------------------
  Determining machine precision:
    2.225073858507201E-308
  Setting up grids for atomic and cluster calculations.

  Creating wave function, potential, and density for free atoms.

  Species: H

  List of occupied orbitals and eigenvalues:
    n    l              occ      energy [Ha]    energy [eV]
    1    0           1.0000        -0.233457        -6.3527

  Creating fixed part of basis set: Ionic, confined, hydrogenic.
 
  H                    hydrogenic:
 
  List of hydrogenic basis orbitals: 
    n    l      effective z      eigenvalue [eV]  inner max. [A]     outer max. [A]     outer radius [A]   
    1    0         1.156555       -18.1992           0.460320           0.460320           5.243229
    1    0         1.686845       -38.7143           0.315118           0.315118           4.932336
    1    0         2.460277       -82.3547           0.215718           0.215718           3.815562
    2    1         2.921459       -29.0309           0.723605           0.723605           5.243229
    2    1         4.145018       -58.4405           0.507614           0.507614           4.813203
    2    1         5.881026      -117.6432           0.360475           0.360475           3.678162
    3    2         6.414469       -62.2013           0.741515           0.741515           4.993004
    3    2         7.675365       -89.0587           0.617279           0.617279           4.583499
    4    3        10.808700       -99.3454           0.778676           0.778676           4.696947
    1    0         3.588333      -175.1887           0.147673           0.147673           2.644120
 

  Adding cutoff potential to free-atom effective potential.
  Creating atomic-like basis functions for current effective potential.

  Species H                   :

  List of atomic basis orbitals and eigenvalues:
    n    l      energy [Ha]    energy [eV]    outer radius [A]
    1    0        -0.233418        -6.3516       5.373006

  Assembling full basis from fixed parts.
  | Species H :   atomic orbital   1 s accepted.
  | Species H :    hydro orbital   1 s accepted.
  | Species H :    hydro orbital   1 s accepted.
  | Species H :    hydro orbital   1 s accepted.
  | Species H :    hydro orbital   1 s accepted.
  | Species H :    hydro orbital   2 p accepted.
  | Species H :    hydro orbital   2 p accepted.
  | Species H :    hydro orbital   2 p accepted.
  | Species H :    hydro orbital   3 d accepted.
  | Species H :    hydro orbital   3 d accepted.
  | Species H :    hydro orbital   4 f accepted.
 
  Basis size parameters after reduction:
  | Total number of radial functions:       11
  | Total number of basis functions :       62
 
  Testing on-site integration grid accuracy.
  |  Species  Function  <phi|h_atom|phi> (log., in eV)  <phi|h_atom|phi> (rad., in eV)
           1        1                 -6.3519216712                 -6.3519215989
           1        2                  8.4716038567                  8.4716058028
           1        3                 58.3749927434                 58.3750109815
           1        4                178.9024737125                178.9026031671
           1        5                456.3642310330                456.3649721232
           1        6                 16.2415699263                 16.2415699338
           1        7                 68.2932618880                 68.2932619123
           1        8                188.3801588017                188.3801587562
           1        9                 49.9849006789                 49.9849006869
           1       10                114.3821731125                114.3821730675
           1       11                 88.0899419283                 88.0899419237

  Preparing densities etc. for the partition functions (integrals / Hartree potential).

  Preparations completed.
  max(cpu_time)          :      0.176 s.
  Wall clock time (cpu1) :      0.200 s.
------------------------------------------------------------

------------------------------------------------------------
          Begin self-consistency loop: Initialization.

          Date     :  20140812, Time     :  112858.659
------------------------------------------------------------

  Initializing index lists of integration centers etc. from given atomic structure:
  | Number of centers in hartree potential         :         2
  | Number of centers in hartree multipole         :         2
  | Number of centers in electron density summation:         2
  | Number of centers in basis integrals           :         2
  | Number of centers in integrals                 :         2
  Partitioning the integration grid into batches with parallel hashing+maxmin method.
  | Number of batches:     1112
  | Maximal batch size:     150
  | Minimal batch size:      65
  | Average batch size:     129.860
  | Standard deviation of batch sizes:      26.503

  Integration load balanced across     4 MPI tasks.
  Work distribution over tasks is as follows:
  Task     0 has      36031 integration points.
  Task     1 has      36104 integration points.
  Task     2 has      36102 integration points.
  Task     3 has      36167 integration points.
  Initializing partition tables, free-atom densities, potentials, etc. across the integration grid (initialize_grid_storage).
  | Original list of interatomic distances with           2 x          2 entries is created.
  | Net number of integration points:   144404
  | of which are non-zero points    :   143804
  Obtaining max. number of non-zero basis functions in each batch (get_n_compute_maxes).
  | Maximal number of non-zero basis functions:       62 in task     0
  | Maximal number of non-zero basis functions:       62 in task     1
  | Maximal number of non-zero basis functions:       62 in task     2
  | Maximal number of non-zero basis functions:       62 in task     3
  Selecting the method for density update.
  Loop over occupied states selected for charge density update.
  Integrating Hamiltonian matrix: batch-based integration.
  Time summed over all CPUs for integration: real work        0.765 s, elapsed        0.784 s
  Integrating overlap matrix.
  Time summed over all CPUs for integration: real work        0.414 s, elapsed        0.430 s

  Updating Kohn-Sham eigenvalues, eigenvectors, occupation numbers, and Fermi level.
  Solving generalized eigenproblem
  Updating Kohn-Sham eigenvalues and eigenfunctions.
  Transforming overlap matrix and checking for singularities.
  Overlap matrix is nonsingular:
  | Lowest eigenvalue:  0.990503E+00
  Solving real generalised eigenvalue problem by standard LAPACK (fast)
  Determining occupation numbers for Kohn-Sham eigenstates.
  | Chemical potential (Fermi level) in eV                 : -.63519297E+01
  | Error in electron count due to remaining E_F inaccuracy: 0.00000000E+00
  | Maximum occupation number of highest empty state:  0.00E+00

  Writing Kohn-Sham eigenvalues.

  State    Occupation    Eigenvalue [Ha]    Eigenvalue [eV]
      1       2.00000          -0.233455           -6.35264
      2       0.00000          -0.233403           -6.35122
      3       0.00000           0.098166            2.67124
      4       0.00000           0.102306            2.78389
      5       0.00000           0.245266            6.67402
      6       0.00000           0.245312            6.67527
      7       0.00000           0.245312            6.67527
      8       0.00000           0.245316            6.67540
      9       0.00000           0.245316            6.67540
     10       0.00000           0.245364            6.67668
     11       0.00000           0.774296           21.06966
     12       0.00000           0.781360           21.26187
     13       0.00000           1.022706           27.82925
     14       0.00000           1.022708           27.82930
     15       0.00000           1.022708           27.82930
     16       0.00000           1.022708           27.82931
     17       0.00000           1.022708           27.82931
     18       0.00000           1.022708           27.82931
     19       0.00000           1.022708           27.82931
     20       0.00000           1.022708           27.82931
     21       0.00000           1.022708           27.82931
     22       0.00000           1.022710           27.82937
     23       0.00000           1.588599           43.22798
     24       0.00000           1.588725           43.23140
     25       0.00000           1.588725           43.23140
     26       0.00000           1.588737           43.23173
     27       0.00000           1.588737           43.23173
     28       0.00000           1.588866           43.23524
     29       0.00000           3.237246           88.08994
     30       0.00000           3.237246           88.08994
     31       0.00000           3.237246           88.08994
     32       0.00000           3.237246           88.08994
     33       0.00000           3.237246           88.08994
     34       0.00000           3.237246           88.08994
     35       0.00000           3.237246           88.08994
     36       0.00000           3.237246           88.08994
     37       0.00000           3.237246           88.08994
     38       0.00000           3.237246           88.08994
     39       0.00000           3.237246           88.08994
     40       0.00000           3.237246           88.08994
     41       0.00000           3.237246           88.08994
     42       0.00000           3.237246           88.08995
     43       0.00000           3.519292           95.76480
     44       0.00000           3.531096           96.08602
     45       0.00000           5.017665          136.53761
     46       0.00000           5.017670          136.53775
     47       0.00000           5.017670          136.53775
     48       0.00000           5.017671          136.53777
     49       0.00000           5.017671          136.53777
     50       0.00000           5.017671          136.53777
     51       0.00000           5.017671          136.53777
     52       0.00000           5.017671          136.53778
     53       0.00000           5.017671          136.53778
     54       0.00000           5.017677          136.53795
     55       0.00000           8.195067          222.99912
     56       0.00000           8.195382          223.00769
     57       0.00000           8.195382          223.00769
     58       0.00000           8.195411          223.00849
     59       0.00000           8.195411          223.00849
     60       0.00000           8.195734          223.01726
     61       0.00000          21.379420          581.76361
     62       0.00000          21.419047          582.84192

  Highest occupied state (VBM) at     -6.35264246 eV
  | Occupation number:      2.00000000

  Lowest unoccupied state (CBM) at    -6.35121695 eV
  | Occupation number:      0.00000000

  Overall HOMO-LUMO gap:      0.00142551 eV.
  Calculating total energy contributions from superposition of free atom densities.

  Total energy components:
  | Sum of eigenvalues            :          -0.46691064 Ha         -12.70528492 eV
  | XC energy correction          :          -0.46495593 Ha         -12.65209448 eV
  | XC potential correction       :           0.60607243 Ha          16.49207002 eV
  | Free-atom electrostatic energy:          -0.56553593 Ha         -15.38901569 eV
  | Hartree energy correction     :           0.00000000 Ha           0.00000000 eV
  | Entropy correction            :           0.00000000 Ha           0.00000000 eV
  | ---------------------------
  | Total energy                  :          -0.89133006 Ha         -24.25432507 eV
  | Total energy, T -> 0          :          -0.89133006 Ha         -24.25432507 eV  <-- do not rely on this value for anything but (periodic) metals
  | Electronic free energy        :          -0.89133006 Ha         -24.25432507 eV

  Derived energy quantities:
  | Kinetic energy                :           0.84973051 Ha          23.12234373 eV
  | Electrostatic energy          :          -1.27610465 Ha         -34.72457432 eV
  | Energy correction for multipole
  | error in Hartree potential    :           0.00000000 Ha           0.00000000 eV
  | Sum of eigenvalues per atom                           :          -6.35264246 eV
  | Total energy (T->0) per atom                          :         -12.12716254 eV  <-- do not rely on this value for anything but (periodic) metals
  | Electronic free energy per atom                       :         -12.12716254 eV
 
 --------------------------------------------
  Constructing auxiliary basis (full product) ...
 
  Product basis:
  | charge radius: extent of product basis function
  | field radius: extent of its Coulomb potential
  | Species   l  charge radius    field radius  multipol momen
  |    H      5     4.813203 A      4.813203 A  2.676041E-15 a.u.
  |    H      4     4.932336 A      4.932336 A  2.417679E-16 a.u.
  |    H      3     5.054418 A      5.054418 A  ************ a.u.
  |    H      4     5.054418 A      5.054418 A  ************ a.u.
  |    H      3     5.116587 A      5.116587 A  1.642688E-15 a.u.
  |    H      2     5.179521 A      5.179521 A  6.126280E-16 a.u.
  |    H      3     5.179521 A      5.179521 A  ************ a.u.
  |    H      2     5.243229 A      5.243229 A  1.485543E-16 a.u.
  |    H      2     5.243229 A      5.243229 A  1.683301E-16 a.u.
  |    H      2     5.243229 A      5.243229 A  ************ a.u.
  |    H      3     5.243229 A      5.243229 A  ************ a.u.
  |    H      1     5.307721 A      5.307721 A  2.416866E-16 a.u.
  |    H      1     5.307721 A      5.307721 A  1.291012E-16 a.u.
  |    H      2     5.307721 A      5.307721 A  7.871382E-16 a.u.
  |    H      0     5.373006 A      5.373006 A  9.519909E-17 a.u.
  |    H      1     5.373006 A      5.373006 A  2.334090E-16 a.u.
  |    H      1     5.373006 A      5.373006 A  ************ a.u.
  |    H      1     5.373006 A      5.373006 A  ************ a.u.
  |    H      1     5.373006 A      5.373006 A  1.823473E-16 a.u.
  |    H      0     5.373006 A      5.439094 A  ************ a.u.
  |    H      0     5.439094 A      5.439094 A  ************ a.u.
  |    H      0     5.439094 A      5.505995 A  9.305319E-17 a.u.
  |    H      0     5.439094 A      5.505995 A  4.082184E-17 a.u.
  |    H      0     5.439094 A      5.505995 A  3.169850E-16 a.u.
  |    H      0     5.439094 A      5.505995 A  2.711689E-16 a.u.
  |    H      5     4.872405 A  1.325110E+02 A           19.619780 a.u.
  |    H      4     5.054418 A  3.771796E+02 A           14.639479 a.u.
  |    H      3     5.243229 A  1.836978E+03 A           11.555842 a.u.
  |    H      2     5.307721 A  2.095310E+04 A            4.940052 a.u.
  |    H      1     5.373006 A  2.512347E+06 A            1.793689 a.u.
  |    H      0     5.439094 A  4.604132E+12 A            0.692368 a.u.

  | Shrink_full_auxil_basis : there are       31  radial auxiliary wave functions
                            accepted and      90 rejected.
  | Shrink_full_auxil_basis : there are totally     286 partial auxiliary wave functions.
 
  | Number of product basis functions per thread :    72
  | Minimal requirement for computer memories :           0.005 Gbs
 
  Basis pair condensation :      1953  -->       1953
 
 ----------------------------------------------------
  Integrating the 3-basis-function Coulomb matrix ...
  | i_atom:            1
  | i_atom:            2
  Integrating the Coulomb interaction matrix for auxiliary basis functions (by atoms)

  SBT integration errors (all should be 'small'):
  large logFT aliasing -> increase N/lnrange
  large SBT aliasing -> decrease lnk0 & increase lnk0+lnrange
  large SBT ringing -> decrease lnr0 & increase lnr0+lnrange
  |            El't  L: logFT-al.   small-k   large-k   small-r   large-r
  Atomic logSBT for 2-center Coulomb matrix    :  max(cpu_time)    wall_clock(cpu1)
  | Multiplication with kernel                 :        0.020 s           0.009 s
  | Main matrix multiplication                 :        0.064 s           0.041 s
  | Analytic angular integration               :        0.004 s           0.005 s
  | Kernel construction                        :        0.008 s           0.002 s
  | Overall 2-center overlap time              :        0.096 s           0.062 s

  Difference of Coulomb matrix to its transposed:  9.9638E-17
  Task     0: Eigenvalues of the Coulomb matrix range from    1.4840E+00 to    5.1588E-01.
  Task     0: Using      286   eigenvalues out of rank      286   Coulomb matrix (auxiliary basis).
 
  Multiplying V^-0.5 x ovlp_3fn (1d-scalapack)

  Initialize hartree_potential_storage
  Max. number of atoms included in rho_multipole:            2

  End scf initialization - timings             :  max(cpu_time)    wall_clock(cpu1)
  | Time for scf. initialization               :       13.621 s          13.632 s
  | Boundary condition initialization          :        0.000 s           0.000 s
  | Integration                                :        0.304 s           0.304 s
  | Solution of K.-S. eqns.                    :        0.008 s           0.004 s
  | Grid partitioning                          :        0.212 s           0.210 s
  | Preloading free-atom quantities on grid    :        0.068 s           0.066 s
  | Free-atom superposition energy             :        0.036 s           0.036 s
  | Total energy evaluation                    :        0.000 s           0.000 s
  | Product basis setup: Total time            :       12.925 s          12.938 s
  | Product basis: | 3-center integrations     :       12.465 s          12.472 s
  | Product basis: | 2-center integrations     :        0.252 s           0.250 s
  | Product basis: | 2-center linear algebra   :        0.088 s           0.088 s
  | Product basis: | 3-center x 2-center       :        0.024 s           0.023 s
------------------------------------------------------------

------------------------------------------------------------
          Begin self-consistency iteration #    1

  Date     :  20140812, Time     :  112912.291
------------------------------------------------------------
  Evaluating new KS density.
  Integration grid: deviation in total charge (<rho> - N_e) =  -4.849454E-13
  Pulay mixing of updated and previous charge densities.

  Evaluating partitioned Hartree potential by multipole expansion.
  | Analytical far-field extrapolation by fixed multipoles:
  | Hartree multipole sum: apparent total charge =  -0.133532E-06
  Summing up the Hartree potential.
  Time summed over all CPUs for potential: real work        1.047 s, elapsed        1.073 s
  | RMS charge density error from multipole expansion :   0.121828E-05

  Integrating Hamiltonian matrix: batch-based integration.
  Time summed over all CPUs for integration: real work        0.665 s, elapsed        0.682 s
  Evaluating the exchange matrix ... 

  Updating Kohn-Sham eigenvalues, eigenvectors, occupation numbers, and Fermi level.
  Solving generalized eigenproblem
  Updating Kohn-Sham eigenvalues and eigenfunctions.
  Solving real generalised eigenvalue problem by standard LAPACK (fast)
  Determining occupation numbers for Kohn-Sham eigenstates.
  | Chemical potential (Fermi level) in eV                 : -.58761746E+01
  | Error in electron count due to remaining E_F inaccuracy: 0.00000000E+00
  | Maximum occupation number of highest empty state:  0.00E+00

  Writing Kohn-Sham eigenvalues.

  State    Occupation    Eigenvalue [Ha]    Eigenvalue [eV]
      1       2.00000          -0.251569           -6.84555
      2       0.00000          -0.180322           -4.90680
      3       0.00000           0.188002            5.11579
      4       0.00000           0.193427            5.26340
      5       0.00000           0.398757           10.85073
      6       0.00000           0.399013           10.85771
      7       0.00000           0.399013           10.85771
      8       0.00000           0.399442           10.86937
      9       0.00000           0.399442           10.86937
     10       0.00000           0.399724           10.87703
     11       0.00000           0.980015           26.66756
     12       0.00000           0.987249           26.86441
     13       0.00000           1.220521           33.21208
     14       0.00000           1.220529           33.21229
     15       0.00000           1.220529           33.21229
     16       0.00000           1.220538           33.21254
     17       0.00000           1.220538           33.21254
     18       0.00000           1.220545           33.21271
     19       0.00000           1.220545           33.21271
     20       0.00000           1.220554           33.21298
     21       0.00000           1.220554           33.21298
     22       0.00000           1.220563           33.21322
     23       0.00000           1.857458           50.54401
     24       0.00000           1.857589           50.54758
     25       0.00000           1.857589           50.54758
     26       0.00000           1.857603           50.54795
     27       0.00000           1.857603           50.54795
     28       0.00000           1.857739           50.55165
     29       0.00000           3.502046           95.29552
     30       0.00000           3.502046           95.29552
     31       0.00000           3.502046           95.29552
     32       0.00000           3.502046           95.29552
     33       0.00000           3.502046           95.29552
     34       0.00000           3.502046           95.29552
     35       0.00000           3.502046           95.29552
     36       0.00000           3.502046           95.29552
     37       0.00000           3.502046           95.29552
     38       0.00000           3.502046           95.29553
     39       0.00000           3.502046           95.29553
     40       0.00000           3.502047           95.29554
     41       0.00000           3.502047           95.29554
     42       0.00000           3.502047           95.29555
     43       0.00000           3.877737          105.51858
     44       0.00000           3.889701          105.84415
     45       0.00000           5.359885          145.84989
     46       0.00000           5.359891          145.85005
     47       0.00000           5.359891          145.85005
     48       0.00000           5.359892          145.85008
     49       0.00000           5.359892          145.85008
     50       0.00000           5.359892          145.85009
     51       0.00000           5.359892          145.85009
     52       0.00000           5.359894          145.85014
     53       0.00000           5.359894          145.85014
     54       0.00000           5.359901          145.85032
     55       0.00000           8.619081          234.53714
     56       0.00000           8.619404          234.54591
     57       0.00000           8.619404          234.54591
     58       0.00000           8.619439          234.54687
     59       0.00000           8.619439          234.54687
     60       0.00000           8.619770          234.55587
     61       0.00000          21.892704          595.73079
     62       0.00000          21.932469          596.81284

  Highest occupied state (VBM) at     -6.84554914 eV
  | Occupation number:      2.00000000

  Lowest unoccupied state (CBM) at    -4.90680008 eV
  | Occupation number:      0.00000000

  Overall HOMO-LUMO gap:      1.93874906 eV.

  Total energy components:
  | Sum of eigenvalues            :          -0.50313861 Ha         -13.69109828 eV
  | XC energy correction          :           0.31863518 Ha           8.67050434 eV
  | XC potential correction       :           0.00000000 Ha           0.00000000 eV
  | Free-atom electrostatic energy:          -0.56553593 Ha         -15.38901569 eV
  | Hartree energy correction     :          -0.00013437 Ha          -0.00365634 eV
  | Entropy correction            :           0.00000000 Ha           0.00000000 eV
  | ---------------------------
  | Total energy                  :          -0.75017374 Ha         -20.41326598 eV
  | Total energy, T -> 0          :          -0.75017374 Ha         -20.41326598 eV  <-- do not rely on this value for anything but (periodic) metals
  | Electronic free energy        :          -0.75017374 Ha         -20.41326598 eV

  Derived energy quantities:
  | Kinetic energy                :           0.84466868 Ha          22.98460424 eV
  | Electrostatic energy          :          -1.27620724 Ha         -34.72736588 eV
  | Energy correction for multipole
  | error in Hartree potential    :           0.00000000 Ha           0.00000007 eV
  | Sum of eigenvalues per atom                           :          -6.84554914 eV
  | Total energy (T->0) per atom                          :         -10.20663299 eV  <-- do not rely on this value for anything but (periodic) metals
  | Electronic free energy per atom                       :         -10.20663299 eV

  Self-consistency convergence accuracy:
  | Change of charge density      : 0.7069E-04
  | Change of sum of eigenvalues  : -.9858E+00 eV
  | Change of total energy        : 0.3841E+01 eV

  End self-consistency iteration #     1       :  max(cpu_time)    wall_clock(cpu1)
  | Time for this iteration                    :        0.612 s           0.614 s
  | Charge density update                      :        0.088 s           0.088 s
  | Density mixing                             :        0.004 s           0.003 s
  | Hartree multipole update                   :        0.068 s           0.068 s
  | Hartree multipole summation                :        0.272 s           0.269 s
  | Integration                                :        0.172 s           0.171 s
  | Fock matrix evaluation                     :        0.012 s           0.012 s
  | Solution of K.-S. eqns.                    :        0.004 s           0.001 s
  | Total energy evaluation                    :        0.000 s           0.000 s
------------------------------------------------------------

------------------------------------------------------------
          Begin self-consistency iteration #    2

  Date     :  20140812, Time     :  112912.906
------------------------------------------------------------
  Evaluating new KS density.
  Integration grid: deviation in total charge (<rho> - N_e) =  -1.776357E-15
  Pulay mixing of updated and previous charge densities.

  Evaluating partitioned Hartree potential by multipole expansion.
  | Analytical far-field extrapolation by fixed multipoles:
  | Hartree multipole sum: apparent total charge =  -0.133604E-06
  Summing up the Hartree potential.
  Time summed over all CPUs for potential: real work        1.036 s, elapsed        1.043 s
  | RMS charge density error from multipole expansion :   0.122351E-05

  Integrating Hamiltonian matrix: batch-based integration.
  Time summed over all CPUs for integration: real work        0.668 s, elapsed        0.685 s
  Evaluating the exchange matrix ... 

  Updating Kohn-Sham eigenvalues, eigenvectors, occupation numbers, and Fermi level.
  Solving generalized eigenproblem
  Updating Kohn-Sham eigenvalues and eigenfunctions.
  Solving real generalised eigenvalue problem by standard LAPACK (fast)
  Determining occupation numbers for Kohn-Sham eigenstates.
  | Chemical potential (Fermi level) in eV                 : -.58765101E+01
  | Error in electron count due to remaining E_F inaccuracy: 0.00000000E+00
  | Maximum occupation number of highest empty state:  0.00E+00

  Highest occupied state (VBM) at     -6.84589022 eV
  | Occupation number:      2.00000000

  Lowest unoccupied state (CBM) at    -4.90712998 eV
  | Occupation number:      0.00000000

  Overall HOMO-LUMO gap:      1.93876024 eV.

  Total energy components:
  | Sum of eigenvalues            :          -0.50316368 Ha         -13.69178044 eV
  | XC energy correction          :           0.30646398 Ha           8.33930914 eV
  | XC potential correction       :           0.00000000 Ha           0.00000000 eV
  | Free-atom electrostatic energy:          -0.56553593 Ha         -15.38901569 eV
  | Hartree energy correction     :          -0.00008369 Ha          -0.00227725 eV
  | Entropy correction            :           0.00000000 Ha           0.00000000 eV
  | ---------------------------
  | Total energy                  :          -0.76231932 Ha         -20.74376425 eV
  | Total energy, T -> 0          :          -0.76231932 Ha         -20.74376425 eV  <-- do not rely on this value for anything but (periodic) metals
  | Electronic free energy        :          -0.76231932 Ha         -20.74376425 eV

  Derived energy quantities:
  | Kinetic energy                :           0.82025520 Ha          22.32027965 eV
  | Electrostatic energy          :          -1.27611055 Ha         -34.72473476 eV
  | Energy correction for multipole
  | error in Hartree potential    :           0.00000000 Ha           0.00000008 eV
  | Sum of eigenvalues per atom                           :          -6.84589022 eV
  | Total energy (T->0) per atom                          :         -10.37188213 eV  <-- do not rely on this value for anything but (periodic) metals
  | Electronic free energy per atom                       :         -10.37188213 eV

  Self-consistency convergence accuracy:
  | Change of charge density      : 0.2935E-01
  | Change of sum of eigenvalues  : -.6822E-03 eV
  | Change of total energy        : -.3305E+00 eV

  End self-consistency iteration #     2       :  max(cpu_time)    wall_clock(cpu1)
  | Time for this iteration                    :        0.604 s           0.604 s
  | Charge density update                      :        0.084 s           0.083 s
  | Density mixing                             :        0.004 s           0.004 s
  | Hartree multipole update                   :        0.068 s           0.069 s
  | Hartree multipole summation                :        0.264 s           0.262 s
  | Integration                                :        0.172 s           0.171 s
  | Fock matrix evaluation                     :        0.016 s           0.013 s
  | Solution of K.-S. eqns.                    :        0.000 s           0.002 s
  | Total energy evaluation                    :        0.000 s           0.000 s
------------------------------------------------------------

------------------------------------------------------------
          Begin self-consistency iteration #    3

  Date     :  20140812, Time     :  112913.510
------------------------------------------------------------
  Evaluating new KS density.
  Integration grid: deviation in total charge (<rho> - N_e) =  -2.220446E-15
  Pulay mixing of updated and previous charge densities.

  Evaluating partitioned Hartree potential by multipole expansion.
  | Analytical far-field extrapolation by fixed multipoles:
  | Hartree multipole sum: apparent total charge =  -0.134617E-06
  Summing up the Hartree potential.
  Time summed over all CPUs for potential: real work        1.036 s, elapsed        1.042 s
  | RMS charge density error from multipole expansion :   0.131677E-05

  Integrating Hamiltonian matrix: batch-based integration.
  Time summed over all CPUs for integration: real work        0.659 s, elapsed        0.670 s
  Evaluating the exchange matrix ... 

  Updating Kohn-Sham eigenvalues, eigenvectors, occupation numbers, and Fermi level.
  Solving generalized eigenproblem
  Updating Kohn-Sham eigenvalues and eigenfunctions.
  Solving real generalised eigenvalue problem by standard LAPACK (fast)
  Determining occupation numbers for Kohn-Sham eigenstates.
  | Chemical potential (Fermi level) in eV                 : -.58821595E+01
  | Error in electron count due to remaining E_F inaccuracy: 0.00000000E+00
  | Maximum occupation number of highest empty state:  0.00E+00

  Highest occupied state (VBM) at     -6.85162745 eV
  | Occupation number:      2.00000000

  Lowest unoccupied state (CBM) at    -4.91269160 eV
  | Occupation number:      0.00000000

  Overall HOMO-LUMO gap:      1.93893585 eV.

  Total energy components:
  | Sum of eigenvalues            :          -0.50358536 Ha         -13.70325489 eV
  | XC energy correction          :           0.30627985 Ha           8.33429883 eV
  | XC potential correction       :           0.00000000 Ha           0.00000000 eV
  | Free-atom electrostatic energy:          -0.56553593 Ha         -15.38901569 eV
  | Hartree energy correction     :           0.00077336 Ha           0.02104410 eV
  | Entropy correction            :           0.00000000 Ha           0.00000000 eV
  | ---------------------------
  | Total energy                  :          -0.76206808 Ha         -20.73692765 eV
  | Total energy, T -> 0          :          -0.76206808 Ha         -20.73692765 eV  <-- do not rely on this value for anything but (periodic) metals
  | Electronic free energy        :          -0.76206808 Ha         -20.73692765 eV

  Derived energy quantities:
  | Kinetic energy                :           0.81872268 Ha          22.27857757 eV
  | Electrostatic energy          :          -1.27451091 Ha         -34.68120639 eV
  | Energy correction for multipole
  | error in Hartree potential    :           0.00000000 Ha           0.00000009 eV
  | Sum of eigenvalues per atom                           :          -6.85162745 eV
  | Total energy (T->0) per atom                          :         -10.36846383 eV  <-- do not rely on this value for anything but (periodic) metals
  | Electronic free energy per atom                       :         -10.36846383 eV

  Self-consistency convergence accuracy:
  | Change of charge density      : 0.2932E-01
  | Change of sum of eigenvalues  : -.1147E-01 eV
  | Change of total energy        : 0.6837E-02 eV

  End self-consistency iteration #     3       :  max(cpu_time)    wall_clock(cpu1)
  | Time for this iteration                    :        0.604 s           0.604 s
  | Charge density update                      :        0.088 s           0.088 s
  | Density mixing                             :        0.008 s           0.009 s
  | Hartree multipole update                   :        0.068 s           0.064 s
  | Hartree multipole summation                :        0.264 s           0.262 s
  | Integration                                :        0.168 s           0.168 s
  | Fock matrix evaluation                     :        0.016 s           0.012 s
  | Solution of K.-S. eqns.                    :        0.000 s           0.001 s
  | Total energy evaluation                    :        0.000 s           0.000 s
------------------------------------------------------------

------------------------------------------------------------
          Begin self-consistency iteration #    4

  Date     :  20140812, Time     :  112914.115
------------------------------------------------------------
  Evaluating new KS density.
  Integration grid: deviation in total charge (<rho> - N_e) =   8.881784E-16
  Pulay mixing of updated and previous charge densities.

  Evaluating partitioned Hartree potential by multipole expansion.
  | Analytical far-field extrapolation by fixed multipoles:
  | Hartree multipole sum: apparent total charge =  -0.131544E-06
  Summing up the Hartree potential.
  Time summed over all CPUs for potential: real work        1.051 s, elapsed        1.059 s
  | RMS charge density error from multipole expansion :   0.529582E-05

  Integrating Hamiltonian matrix: batch-based integration.
  Time summed over all CPUs for integration: real work        0.657 s, elapsed        0.662 s
  Evaluating the exchange matrix ... 

  Updating Kohn-Sham eigenvalues, eigenvectors, occupation numbers, and Fermi level.
  Solving generalized eigenproblem
  Updating Kohn-Sham eigenvalues and eigenfunctions.
  Solving real generalised eigenvalue problem by standard LAPACK (fast)
  Determining occupation numbers for Kohn-Sham eigenstates.
  | Chemical potential (Fermi level) in eV                 : -.60788644E+01
  | Error in electron count due to remaining E_F inaccuracy: 0.00000000E+00
  | Maximum occupation number of highest empty state:  0.00E+00

  Highest occupied state (VBM) at     -7.05161389 eV
  | Occupation number:      2.00000000

  Lowest unoccupied state (CBM) at    -5.10611500 eV
  | Occupation number:      0.00000000

  Overall HOMO-LUMO gap:      1.94549889 eV.

  Total energy components:
  | Sum of eigenvalues            :          -0.51828409 Ha         -14.10322778 eV
  | XC energy correction          :           0.29985323 Ha           8.15942159 eV
  | XC potential correction       :           0.00000000 Ha           0.00000000 eV
  | Free-atom electrostatic energy:          -0.56553593 Ha         -15.38901569 eV
  | Hartree energy correction     :           0.02983028 Ha           0.81172329 eV
  | Entropy correction            :           0.00000000 Ha           0.00000000 eV
  | ---------------------------
  | Total energy                  :          -0.75413651 Ha         -20.52109859 eV
  | Total energy, T -> 0          :          -0.75413651 Ha         -20.52109859 eV  <-- do not rely on this value for anything but (periodic) metals
  | Electronic free energy        :          -0.75413651 Ha         -20.52109859 eV

  Derived energy quantities:
  | Kinetic energy                :           0.76483847 Ha          20.81231359 eV
  | Electrostatic energy          :          -1.21912175 Ha         -33.17399060 eV
  | Energy correction for multipole
  | error in Hartree potential    :           0.00000003 Ha           0.00000074 eV
  | Sum of eigenvalues per atom                           :          -7.05161389 eV
  | Total energy (T->0) per atom                          :         -10.26054930 eV  <-- do not rely on this value for anything but (periodic) metals
  | Electronic free energy per atom                       :         -10.26054930 eV

  Self-consistency convergence accuracy:
  | Change of charge density      : 0.2884E-01
  | Change of sum of eigenvalues  : -.4000E+00 eV
  | Change of total energy        : 0.2158E+00 eV

  End self-consistency iteration #     4       :  max(cpu_time)    wall_clock(cpu1)
  | Time for this iteration                    :        0.608 s           0.606 s
  | Charge density update                      :        0.084 s           0.084 s
  | Density mixing                             :        0.012 s           0.012 s
  | Hartree multipole update                   :        0.064 s           0.064 s
  | Hartree multipole summation                :        0.268 s           0.266 s
  | Integration                                :        0.164 s           0.166 s
  | Fock matrix evaluation                     :        0.012 s           0.012 s
  | Solution of K.-S. eqns.                    :        0.004 s           0.001 s
  | Total energy evaluation                    :        0.000 s           0.001 s
------------------------------------------------------------

------------------------------------------------------------
          Begin self-consistency iteration #    5

  Date     :  20140812, Time     :  112914.721
------------------------------------------------------------
  Evaluating new KS density.
  Integration grid: deviation in total charge (<rho> - N_e) =   5.773160E-15
  Pulay mixing of updated and previous charge densities.

  Evaluating partitioned Hartree potential by multipole expansion.
  | Analytical far-field extrapolation by fixed multipoles:
  | Hartree multipole sum: apparent total charge =  -0.146057E-06
  Summing up the Hartree potential.
  Time summed over all CPUs for potential: real work        1.040 s, elapsed        1.049 s
  | RMS charge density error from multipole expansion :   0.759942E-05

  Integrating Hamiltonian matrix: batch-based integration.
  Time summed over all CPUs for integration: real work        0.657 s, elapsed        0.667 s
  Evaluating the exchange matrix ... 

  Updating Kohn-Sham eigenvalues, eigenvectors, occupation numbers, and Fermi level.
  Solving generalized eigenproblem
  Updating Kohn-Sham eigenvalues and eigenfunctions.
  Solving real generalised eigenvalue problem by standard LAPACK (fast)
  Determining occupation numbers for Kohn-Sham eigenstates.
  | Chemical potential (Fermi level) in eV                 : -.61875397E+01
  | Error in electron count due to remaining E_F inaccuracy: 0.00000000E+00
  | Maximum occupation number of highest empty state:  0.00E+00

  Highest occupied state (VBM) at     -7.16237006 eV
  | Occupation number:      2.00000000

  Lowest unoccupied state (CBM) at    -5.21270935 eV
  | Occupation number:      0.00000000

  Overall HOMO-LUMO gap:      1.94966071 eV.

  Total energy components:
  | Sum of eigenvalues            :          -0.52642452 Ha         -14.32474012 eV
  | XC energy correction          :           0.29519820 Ha           8.03275179 eV
  | XC potential correction       :           0.00000000 Ha           0.00000000 eV
  | Free-atom electrostatic energy:          -0.56553593 Ha         -15.38901569 eV
  | Hartree energy correction     :           0.04516568 Ha           1.22902058 eV
  | Entropy correction            :           0.00000000 Ha           0.00000000 eV
  | ---------------------------
  | Total energy                  :          -0.75159658 Ha         -20.45198345 eV
  | Total energy, T -> 0          :          -0.75159658 Ha         -20.45198345 eV  <-- do not rely on this value for anything but (periodic) metals
  | Electronic free energy        :          -0.75159658 Ha         -20.45198345 eV

  Derived energy quantities:
  | Kinetic energy                :           0.73145312 Ha          19.90385203 eV
  | Electrostatic energy          :          -1.18785149 Ha         -32.32308369 eV
  | Energy correction for multipole
  | error in Hartree potential    :           0.00000004 Ha           0.00000120 eV
  | Sum of eigenvalues per atom                           :          -7.16237006 eV
  | Total energy (T->0) per atom                          :         -10.22599172 eV  <-- do not rely on this value for anything but (periodic) metals
  | Electronic free energy per atom                       :         -10.22599172 eV

  Self-consistency convergence accuracy:
  | Change of charge density      : 0.1253E-01
  | Change of sum of eigenvalues  : -.2215E+00 eV
  | Change of total energy        : 0.6912E-01 eV

  End self-consistency iteration #     5       :  max(cpu_time)    wall_clock(cpu1)
  | Time for this iteration                    :        0.608 s           0.608 s
  | Charge density update                      :        0.084 s           0.083 s
  | Density mixing                             :        0.016 s           0.016 s
  | Hartree multipole update                   :        0.068 s           0.065 s
  | Hartree multipole summation                :        0.264 s           0.263 s
  | Integration                                :        0.168 s           0.167 s
  | Fock matrix evaluation                     :        0.012 s           0.012 s
  | Solution of K.-S. eqns.                    :        0.000 s           0.001 s
  | Total energy evaluation                    :        0.000 s           0.001 s
------------------------------------------------------------

------------------------------------------------------------
          Begin self-consistency iteration #    6

  Date     :  20140812, Time     :  112915.329
------------------------------------------------------------
  Evaluating new KS density.
  Integration grid: deviation in total charge (<rho> - N_e) =  -1.110223E-15
  Pulay mixing of updated and previous charge densities.

  Evaluating partitioned Hartree potential by multipole expansion.
  | Analytical far-field extrapolation by fixed multipoles:
  | Hartree multipole sum: apparent total charge =  -0.120532E-06
  Summing up the Hartree potential.
  Time summed over all CPUs for potential: real work        1.052 s, elapsed        1.065 s
  | RMS charge density error from multipole expansion :   0.862537E-05

  Integrating Hamiltonian matrix: batch-based integration.
  Time summed over all CPUs for integration: real work        0.661 s, elapsed        0.684 s
  Evaluating the exchange matrix ... 

  Updating Kohn-Sham eigenvalues, eigenvectors, occupation numbers, and Fermi level.
  Solving generalized eigenproblem
  Updating Kohn-Sham eigenvalues and eigenfunctions.
  Solving real generalised eigenvalue problem by standard LAPACK (fast)
  Determining occupation numbers for Kohn-Sham eigenstates.
  | Chemical potential (Fermi level) in eV                 : -.62361379E+01
  | Error in electron count due to remaining E_F inaccuracy: 0.00000000E+00
  | Maximum occupation number of highest empty state:  0.00E+00

  Highest occupied state (VBM) at     -7.21195867 eV
  | Occupation number:      2.00000000

  Lowest unoccupied state (CBM) at    -5.26031720 eV
  | Occupation number:      0.00000000

  Overall HOMO-LUMO gap:      1.95164147 eV.

  Total energy components:
  | Sum of eigenvalues            :          -0.53006922 Ha         -14.42391734 eV
  | XC energy correction          :           0.29306504 Ha           7.97470560 eV
  | XC potential correction       :           0.00000000 Ha           0.00000000 eV
  | Free-atom electrostatic energy:          -0.56553593 Ha         -15.38901569 eV
  | Hartree energy correction     :           0.05186020 Ha           1.41118789 eV
  | Entropy correction            :           0.00000000 Ha           0.00000000 eV
  | ---------------------------
  | Total energy                  :          -0.75067991 Ha         -20.42703954 eV
  | Total energy, T -> 0          :          -0.75067991 Ha         -20.42703954 eV  <-- do not rely on this value for anything but (periodic) metals
  | Electronic free energy        :          -0.75067991 Ha         -20.42703954 eV

  Derived energy quantities:
  | Kinetic energy                :           0.71608835 Ha          19.48575535 eV
  | Electrostatic energy          :          -1.17370321 Ha         -31.93808928 eV
  | Energy correction for multipole
  | error in Hartree potential    :           0.00000005 Ha           0.00000142 eV
  | Sum of eigenvalues per atom                           :          -7.21195867 eV
  | Total energy (T->0) per atom                          :         -10.21351977 eV  <-- do not rely on this value for anything but (periodic) metals
  | Electronic free energy per atom                       :         -10.21351977 eV

  Self-consistency convergence accuracy:
  | Change of charge density      : 0.3520E-02
  | Change of sum of eigenvalues  : -.9918E-01 eV
  | Change of total energy        : 0.2494E-01 eV

  End self-consistency iteration #     6       :  max(cpu_time)    wall_clock(cpu1)
  | Time for this iteration                    :        0.636 s           0.633 s
  | Charge density update                      :        0.084 s           0.083 s
  | Density mixing                             :        0.020 s           0.020 s
  | Hartree multipole update                   :        0.080 s           0.078 s
  | Hartree multipole summation                :        0.268 s           0.267 s
  | Integration                                :        0.172 s           0.171 s
  | Fock matrix evaluation                     :        0.012 s           0.012 s
  | Solution of K.-S. eqns.                    :        0.004 s           0.002 s
  | Total energy evaluation                    :        0.000 s           0.000 s
------------------------------------------------------------

------------------------------------------------------------
          Begin self-consistency iteration #    7

  Date     :  20140812, Time     :  112915.962
------------------------------------------------------------
  Evaluating new KS density.
  Integration grid: deviation in total charge (<rho> - N_e) =   7.105427E-15
  Pulay mixing of updated and previous charge densities.

  Evaluating partitioned Hartree potential by multipole expansion.
  | Analytical far-field extrapolation by fixed multipoles:
  | Hartree multipole sum: apparent total charge =  -0.120157E-06
  Summing up the Hartree potential.
  Time summed over all CPUs for potential: real work        1.040 s, elapsed        1.047 s
  | RMS charge density error from multipole expansion :   0.854641E-05

  Integrating Hamiltonian matrix: batch-based integration.
  Time summed over all CPUs for integration: real work        0.682 s, elapsed        0.716 s
  Evaluating the exchange matrix ... 

  Updating Kohn-Sham eigenvalues, eigenvectors, occupation numbers, and Fermi level.
  Solving generalized eigenproblem
  Updating Kohn-Sham eigenvalues and eigenfunctions.
  Solving real generalised eigenvalue problem by standard LAPACK (fast)
  Determining occupation numbers for Kohn-Sham eigenstates.
  | Chemical potential (Fermi level) in eV                 : -.62321180E+01
  | Error in electron count due to remaining E_F inaccuracy: 0.00000000E+00
  | Maximum occupation number of highest empty state:  0.00E+00

  Highest occupied state (VBM) at     -7.20779261 eV
  | Occupation number:      2.00000000

  Lowest unoccupied state (CBM) at    -5.25644330 eV
  | Occupation number:      0.00000000

  Overall HOMO-LUMO gap:      1.95134931 eV.

  Total energy components:
  | Sum of eigenvalues            :          -0.52976302 Ha         -14.41558522 eV
  | XC energy correction          :           0.29290521 Ha           7.97035623 eV
  | XC potential correction       :           0.00000000 Ha           0.00000000 eV
  | Free-atom electrostatic energy:          -0.56553593 Ha         -15.38901569 eV
  | Hartree energy correction     :           0.05134262 Ha           1.39710370 eV
  | Entropy correction            :           0.00000000 Ha           0.00000000 eV
  | ---------------------------
  | Total energy                  :          -0.75105113 Ha         -20.43714097 eV
  | Total energy, T -> 0          :          -0.75105113 Ha         -20.43714097 eV  <-- do not rely on this value for anything but (periodic) metals
  | Electronic free energy        :          -0.75105113 Ha         -20.43714097 eV

  Derived energy quantities:
  | Kinetic energy                :           0.71663440 Ha          19.50061430 eV
  | Electrostatic energy          :          -1.17478032 Ha         -31.96739904 eV
  | Energy correction for multipole
  | error in Hartree potential    :           0.00000005 Ha           0.00000140 eV
  | Sum of eigenvalues per atom                           :          -7.20779261 eV
  | Total energy (T->0) per atom                          :         -10.21857049 eV  <-- do not rely on this value for anything but (periodic) metals
  | Electronic free energy per atom                       :         -10.21857049 eV

  Self-consistency convergence accuracy:
  | Change of charge density      : 0.5149E-03
  | Change of sum of eigenvalues  : 0.8332E-02 eV
  | Change of total energy        : -.1010E-01 eV

  End self-consistency iteration #     7       :  max(cpu_time)    wall_clock(cpu1)
  | Time for this iteration                    :        0.632 s           0.632 s
  | Charge density update                      :        0.088 s           0.087 s
  | Density mixing                             :        0.024 s           0.024 s
  | Hartree multipole update                   :        0.064 s           0.065 s
  | Hartree multipole summation                :        0.264 s           0.263 s
  | Integration                                :        0.180 s           0.179 s
  | Fock matrix evaluation                     :        0.012 s           0.012 s
  | Solution of K.-S. eqns.                    :        0.004 s           0.001 s
  | Total energy evaluation                    :        0.000 s           0.001 s
------------------------------------------------------------

------------------------------------------------------------
          Begin self-consistency iteration #    8

  Date     :  20140812, Time     :  112916.594
------------------------------------------------------------
  Evaluating new KS density.
  Integration grid: deviation in total charge (<rho> - N_e) =   5.773160E-15
  Pulay mixing of updated and previous charge densities.

  Evaluating partitioned Hartree potential by multipole expansion.
  | Analytical far-field extrapolation by fixed multipoles:
  | Hartree multipole sum: apparent total charge =  -0.119847E-06
  Summing up the Hartree potential.
  Time summed over all CPUs for potential: real work        1.041 s, elapsed        1.046 s
  | RMS charge density error from multipole expansion :   0.848249E-05

  Integrating Hamiltonian matrix: batch-based integration.
  Time summed over all CPUs for integration: real work        0.663 s, elapsed        0.673 s
  Evaluating the exchange matrix ... 

  Updating Kohn-Sham eigenvalues, eigenvectors, occupation numbers, and Fermi level.
  Solving generalized eigenproblem
  Updating Kohn-Sham eigenvalues and eigenfunctions.
  Solving real generalised eigenvalue problem by standard LAPACK (fast)
  Determining occupation numbers for Kohn-Sham eigenstates.
  | Chemical potential (Fermi level) in eV                 : -.62289703E+01
  | Error in electron count due to remaining E_F inaccuracy: 0.00000000E+00
  | Maximum occupation number of highest empty state:  0.00E+00

  Highest occupied state (VBM) at     -7.20455485 eV
  | Occupation number:      2.00000000

  Lowest unoccupied state (CBM) at    -5.25338570 eV
  | Occupation number:      0.00000000

  Overall HOMO-LUMO gap:      1.95116916 eV.

  Total energy components:
  | Sum of eigenvalues            :          -0.52952505 Ha         -14.40910971 eV
  | XC energy correction          :           0.29301911 Ha           7.97345559 eV
  | XC potential correction       :           0.00000000 Ha           0.00000000 eV
  | Free-atom electrostatic energy:          -0.56553593 Ha         -15.38901569 eV
  | Hartree energy correction     :           0.05092458 Ha           1.38572826 eV
  | Entropy correction            :           0.00000000 Ha           0.00000000 eV
  | ---------------------------
  | Total energy                  :          -0.75111730 Ha         -20.43894154 eV
  | Total energy, T -> 0          :          -0.75111730 Ha         -20.43894154 eV  <-- do not rely on this value for anything but (periodic) metals
  | Electronic free energy        :          -0.75111730 Ha         -20.43894154 eV

  Derived energy quantities:
  | Kinetic energy                :           0.71756264 Ha          19.52587281 eV
  | Electrostatic energy          :          -1.17566083 Ha         -31.99135876 eV
  | Energy correction for multipole
  | error in Hartree potential    :           0.00000005 Ha           0.00000139 eV
  | Sum of eigenvalues per atom                           :          -7.20455485 eV
  | Total energy (T->0) per atom                          :         -10.21947077 eV  <-- do not rely on this value for anything but (periodic) metals
  | Electronic free energy per atom                       :         -10.21947077 eV

  Self-consistency convergence accuracy:
  | Change of charge density      : 0.2143E-03
  | Change of sum of eigenvalues  : 0.6476E-02 eV
  | Change of total energy        : -.1801E-02 eV

  End self-consistency iteration #     8       :  max(cpu_time)    wall_clock(cpu1)
  | Time for this iteration                    :        0.620 s           0.621 s
  | Charge density update                      :        0.084 s           0.083 s
  | Density mixing                             :        0.028 s           0.028 s
  | Hartree multipole update                   :        0.064 s           0.064 s
  | Hartree multipole summation                :        0.264 s           0.262 s
  | Integration                                :        0.168 s           0.169 s
  | Fock matrix evaluation                     :        0.012 s           0.012 s
  | Solution of K.-S. eqns.                    :        0.004 s           0.001 s
  | Total energy evaluation                    :        0.000 s           0.001 s
------------------------------------------------------------

------------------------------------------------------------
          Begin self-consistency iteration #    9

  Date     :  20140812, Time     :  112917.215
------------------------------------------------------------
  Evaluating new KS density.
  Integration grid: deviation in total charge (<rho> - N_e) =   1.776357E-15
  Pulay mixing of updated and previous charge densities.

  Evaluating partitioned Hartree potential by multipole expansion.
  | Analytical far-field extrapolation by fixed multipoles:
  | Hartree multipole sum: apparent total charge =  -0.119886E-06
  Summing up the Hartree potential.
  Time summed over all CPUs for potential: real work        1.053 s, elapsed        1.065 s
  | RMS charge density error from multipole expansion :   0.849223E-05

  Integrating Hamiltonian matrix: batch-based integration.
  Time summed over all CPUs for integration: real work        0.656 s, elapsed        0.666 s
  Evaluating the exchange matrix ... 

  Updating Kohn-Sham eigenvalues, eigenvectors, occupation numbers, and Fermi level.
  Solving generalized eigenproblem
  Updating Kohn-Sham eigenvalues and eigenfunctions.
  Solving real generalised eigenvalue problem by standard LAPACK (fast)
  Determining occupation numbers for Kohn-Sham eigenstates.
  | Chemical potential (Fermi level) in eV                 : -.62296206E+01
  | Error in electron count due to remaining E_F inaccuracy: 0.00000000E+00
  | Maximum occupation number of highest empty state:  0.00E+00

  Highest occupied state (VBM) at     -7.20526329 eV
  | Occupation number:      2.00000000

  Lowest unoccupied state (CBM) at    -5.25397788 eV
  | Occupation number:      0.00000000

  Overall HOMO-LUMO gap:      1.95128542 eV.

  Total energy components:
  | Sum of eigenvalues            :          -0.52957712 Ha         -14.41052658 eV
  | XC energy correction          :           0.29303008 Ha           7.97375425 eV
  | XC potential correction       :           0.00000000 Ha           0.00000000 eV
  | Free-atom electrostatic energy:          -0.56553593 Ha         -15.38901569 eV
  | Hartree energy correction     :           0.05099074 Ha           1.38752870 eV
  | Entropy correction            :           0.00000000 Ha           0.00000000 eV
  | ---------------------------
  | Total energy                  :          -0.75109222 Ha         -20.43825933 eV
  | Total energy, T -> 0          :          -0.75109222 Ha         -20.43825933 eV  <-- do not rely on this value for anything but (periodic) metals
  | Electronic free energy        :          -0.75109222 Ha         -20.43825933 eV

  Derived energy quantities:
  | Kinetic energy                :           0.71747823 Ha          19.52357589 eV
  | Electrostatic energy          :          -1.17554037 Ha         -31.98808097 eV
  | Energy correction for multipole
  | error in Hartree potential    :           0.00000005 Ha           0.00000139 eV
  | Sum of eigenvalues per atom                           :          -7.20526329 eV
  | Total energy (T->0) per atom                          :         -10.21912966 eV  <-- do not rely on this value for anything but (periodic) metals
  | Electronic free energy per atom                       :         -10.21912966 eV

  Self-consistency convergence accuracy:
  | Change of charge density      : 0.3422E-04
  | Change of sum of eigenvalues  : -.1417E-02 eV
  | Change of total energy        : 0.6822E-03 eV

  End self-consistency iteration #     9       :  max(cpu_time)    wall_clock(cpu1)
  | Time for this iteration                    :        0.628 s           0.627 s
  | Charge density update                      :        0.084 s           0.083 s
  | Density mixing                             :        0.032 s           0.032 s
  | Hartree multipole update                   :        0.064 s           0.064 s
  | Hartree multipole summation                :        0.268 s           0.267 s
  | Integration                                :        0.168 s           0.167 s
  | Fock matrix evaluation                     :        0.012 s           0.012 s
  | Solution of K.-S. eqns.                    :        0.004 s           0.002 s
  | Total energy evaluation                    :        0.000 s           0.000 s
------------------------------------------------------------

------------------------------------------------------------
          Begin self-consistency iteration #   10

  Date     :  20140812, Time     :  112917.842
------------------------------------------------------------
  Evaluating new KS density.
  Integration grid: deviation in total charge (<rho> - N_e) =   3.996803E-15
  Pulay mixing of updated and previous charge densities.

  Evaluating partitioned Hartree potential by multipole expansion.
  | Analytical far-field extrapolation by fixed multipoles:
  | Hartree multipole sum: apparent total charge =  -0.119891E-06
  Summing up the Hartree potential.
  Time summed over all CPUs for potential: real work        1.048 s, elapsed        1.056 s
  | RMS charge density error from multipole expansion :   0.849325E-05

  Integrating Hamiltonian matrix: batch-based integration.
  Time summed over all CPUs for integration: real work        0.694 s, elapsed        0.803 s
  Evaluating the exchange matrix ... 

  Updating Kohn-Sham eigenvalues, eigenvectors, occupation numbers, and Fermi level.
  Solving generalized eigenproblem
  Updating Kohn-Sham eigenvalues and eigenfunctions.
  Solving real generalised eigenvalue problem by standard LAPACK (fast)
  Determining occupation numbers for Kohn-Sham eigenstates.
  | Chemical potential (Fermi level) in eV                 : -.62296880E+01
  | Error in electron count due to remaining E_F inaccuracy: 0.00000000E+00
  | Maximum occupation number of highest empty state:  0.00E+00

  Highest occupied state (VBM) at     -7.20533563 eV
  | Occupation number:      2.00000000

  Lowest unoccupied state (CBM) at    -5.25404035 eV
  | Occupation number:      0.00000000

  Overall HOMO-LUMO gap:      1.95129528 eV.

  Total energy components:
  | Sum of eigenvalues            :          -0.52958244 Ha         -14.41067126 eV
  | XC energy correction          :           0.29302419 Ha           7.97359392 eV
  | XC potential correction       :           0.00000000 Ha           0.00000000 eV
  | Free-atom electrostatic energy:          -0.56553593 Ha         -15.38901569 eV
  | Hartree energy correction     :           0.05099816 Ha           1.38773045 eV
  | Entropy correction            :           0.00000000 Ha           0.00000000 eV
  | ---------------------------
  | Total energy                  :          -0.75109602 Ha         -20.43836259 eV
  | Total energy, T -> 0          :          -0.75109602 Ha         -20.43836259 eV  <-- do not rely on this value for anything but (periodic) metals
  | Electronic free energy        :          -0.75109602 Ha         -20.43836259 eV

  Derived energy quantities:
  | Kinetic energy                :           0.71745379 Ha          19.52291084 eV
  | Electrostatic energy          :          -1.17552562 Ha         -31.98767950 eV
  | Energy correction for multipole
  | error in Hartree potential    :           0.00000005 Ha           0.00000139 eV
  | Sum of eigenvalues per atom                           :          -7.20533563 eV
  | Total energy (T->0) per atom                          :         -10.21918129 eV  <-- do not rely on this value for anything but (periodic) metals
  | Electronic free energy per atom                       :         -10.21918129 eV

  Self-consistency convergence accuracy:
  | Change of charge density      : 0.3747E-05
  | Change of sum of eigenvalues  : -.1447E-03 eV
  | Change of total energy        : -.1033E-03 eV

  End self-consistency iteration #    10       :  max(cpu_time)    wall_clock(cpu1)
  | Time for this iteration                    :        0.664 s           0.664 s
  | Charge density update                      :        0.084 s           0.083 s
  | Density mixing                             :        0.036 s           0.036 s
  | Hartree multipole update                   :        0.064 s           0.064 s
  | Hartree multipole summation                :        0.264 s           0.265 s
  | Integration                                :        0.204 s           0.201 s
  | Fock matrix evaluation                     :        0.016 s           0.013 s
  | Solution of K.-S. eqns.                    :        0.004 s           0.001 s
  | Total energy evaluation                    :        0.000 s           0.001 s
------------------------------------------------------------

------------------------------------------------------------
          Begin self-consistency iteration #   11

  Date     :  20140812, Time     :  112918.507
------------------------------------------------------------
  Evaluating new KS density.
  Integration grid: deviation in total charge (<rho> - N_e) =   3.552714E-15
  Pulay mixing of updated and previous charge densities.

  Evaluating partitioned Hartree potential by multipole expansion.
  | Analytical far-field extrapolation by fixed multipoles:
[...]

  Integrating Hamiltonian matrix: batch-based integration.
  Time summed over all CPUs for integration: real work        0.697 s, elapsed        0.823 s
  Evaluating the exchange matrix ... 

  Updating Kohn-Sham eigenvalues, eigenvectors, occupation numbers, and Fermi level.
  Solving generalized eigenproblem
  Updating Kohn-Sham eigenvalues and eigenfunctions.
  Solving real generalised eigenvalue problem by standard LAPACK (fast)
  Determining occupation numbers for Kohn-Sham eigenstates.
  | Chemical potential (Fermi level) in eV                 : -.62296955E+01
  | Error in electron count due to remaining E_F inaccuracy: 0.00000000E+00
  | Maximum occupation number of highest empty state:  0.00E+00

  Highest occupied state (VBM) at     -7.20534480 eV
  | Occupation number:      2.00000000

  Lowest unoccupied state (CBM) at    -5.25404625 eV
  | Occupation number:      0.00000000

  Overall HOMO-LUMO gap:      1.95129854 eV.

  Total energy components:
  | Sum of eigenvalues            :          -0.52958311 Ha         -14.41068959 eV
  | XC energy correction          :           0.29302384 Ha           7.97358449 eV
  | XC potential correction       :           0.00000000 Ha           0.00000000 eV
  | Free-atom electrostatic energy:          -0.56553593 Ha         -15.38901569 eV
  | Hartree energy correction     :           0.05099844 Ha           1.38773804 eV
  | Entropy correction            :           0.00000000 Ha           0.00000000 eV
  | ---------------------------
  | Total energy                  :          -0.75109676 Ha         -20.43838275 eV
  | Total energy, T -> 0          :          -0.75109676 Ha         -20.43838275 eV  <-- do not rely on this value for anything but (periodic) metals
  | Electronic free energy        :          -0.75109676 Ha         -20.43838275 eV

  Derived energy quantities:
  | Kinetic energy                :           0.71745284 Ha          19.52288512 eV
  | Electrostatic energy          :          -1.17552576 Ha         -31.98768338 eV
  | Energy correction for multipole
  | error in Hartree potential    :           0.00000005 Ha           0.00000139 eV
  | Sum of eigenvalues per atom                           :          -7.20534480 eV
  | Total energy (T->0) per atom                          :         -10.21919138 eV  <-- do not rely on this value for anything but (periodic) metals
  | Electronic free energy per atom                       :         -10.21919138 eV

  Self-consistency convergence accuracy:
  | Change of charge density      : 0.3900E-08
  | Change of sum of eigenvalues  : -.4040E-06 eV
  | Change of total energy        : -.6316E-07 eV

  Writing Kohn-Sham eigenvalues.

  State    Occupation    Eigenvalue [Ha]    Eigenvalue [eV]
      1       2.00000          -0.264792           -7.20534
      2       0.00000          -0.193083           -5.25405
      3       0.00000           0.185463            5.04671
      4       0.00000           0.190492            5.18355
      5       0.00000           0.387507           10.54459
      6       0.00000           0.387823           10.55320
      7       0.00000           0.387823           10.55320
      8       0.00000           0.388317           10.56664
      9       0.00000           0.388317           10.56664
     10       0.00000           0.388666           10.57614
     11       0.00000           0.964734           26.25175
     12       0.00000           0.971892           26.44651
     13       0.00000           1.207356           32.85383
     14       0.00000           1.207356           32.85384
     15       0.00000           1.207356           32.85384
     16       0.00000           1.207360           32.85394
     17       0.00000           1.207360           32.85394
     18       0.00000           1.207364           32.85403
     19       0.00000           1.207364           32.85403
     20       0.00000           1.207390           32.85477
     21       0.00000           1.207390           32.85477
     22       0.00000           1.207406           32.85520
     23       0.00000           1.833283           49.88618
     24       0.00000           1.833398           49.88930
     25       0.00000           1.833398           49.88930
     26       0.00000           1.833412           49.88967
     27       0.00000           1.833412           49.88967
     28       0.00000           1.833564           49.89381
     29       0.00000           3.480786           94.71701
     30       0.00000           3.480786           94.71701
     31       0.00000           3.480786           94.71701
     32       0.00000           3.480786           94.71701
     33       0.00000           3.480801           94.71743
     34       0.00000           3.480801           94.71743
     35       0.00000           3.480802           94.71744
     36       0.00000           3.480802           94.71744
     37       0.00000           3.480810           94.71767
     38       0.00000           3.480810           94.71767
     39       0.00000           3.480812           94.71770
     40       0.00000           3.480812           94.71770
     41       0.00000           3.480814           94.71776
     42       0.00000           3.480815           94.71780
     43       0.00000           3.841758          104.53956
     44       0.00000           3.853701          104.86454
     45       0.00000           5.325899          144.92508
     46       0.00000           5.325899          144.92509
     47       0.00000           5.325900          144.92511
     48       0.00000           5.325900          144.92511
     49       0.00000           5.325910          144.92538
     50       0.00000           5.325911          144.92541
     51       0.00000           5.325911          144.92541
     52       0.00000           5.325916          144.92554
     53       0.00000           5.325916          144.92554
     54       0.00000           5.325928          144.92586
     55       0.00000           8.573099          233.28590
     56       0.00000           8.573410          233.29435
     57       0.00000           8.573410          233.29435
     58       0.00000           8.573449          233.29541
     59       0.00000           8.573449          233.29541
     60       0.00000           8.573794          233.30480
     61       0.00000          21.836375          594.19799
     62       0.00000          21.876125          595.27964

  Highest occupied state (VBM) at     -7.20534480 eV
  | Occupation number:      2.00000000

  Lowest unoccupied state (CBM) at    -5.25404625 eV
  | Occupation number:      0.00000000

  Overall HOMO-LUMO gap:      1.95129854 eV.

  Self-consistency cycle converged.

  End self-consistency iteration #    13       :  max(cpu_time)    wall_clock(cpu1)
  | Time for this iteration                    :        0.736 s           0.734 s
  | Charge density update                      :        0.084 s           0.083 s
  | Density mixing                             :        0.044 s           0.044 s
  | Hartree multipole update                   :        0.084 s           0.085 s
  | Hartree multipole summation                :        0.304 s           0.301 s
  | Integration                                :        0.208 s           0.206 s
  | Fock matrix evaluation                     :        0.012 s           0.012 s
  | Solution of K.-S. eqns.                    :        0.000 s           0.001 s
  | Total energy evaluation                    :        0.000 s           0.001 s
------------------------------------------------------------

  Energy and forces in a compact form:
  | Total energy uncorrected      :         -0.204383827543882E+02 eV
  | Total energy corrected        :         -0.204383827543882E+02 eV  <-- do not rely on this value for anything but (periodic) metals
  | Electronic free energy        :         -0.204383827543882E+02 eV

  ------------------------------------ 
  Start decomposition of the XC Energy 
  ------------------------------------ 
  Hartree-Fock part   :          0.293023844 Ha              7.973584489 eV
  ------------------------------------ 
  X Energy            :          0.293023844 Ha              7.973584489 eV
  C Energy GGA        :          0.000000000 Ha              0.000000000 eV
  Total XC Energy     :          0.293023844 Ha              7.973584489 eV
  LDA X and C from self-consistent density 
  X Energy LDA        :         -0.351708014 Ha             -9.570461989 eV
  C Energy LDA        :         -0.075284218 Ha             -2.048587805 eV
  ------------------------------------ 
  End decomposition of the XC Energy 
  ------------------------------------ 
---------------------------------------------
---------------------------------------------
 | MP2 calculation starts ...
---------------------------------------------

  | Note : Resolution of identity applied 
  | Note : Non spin-polarized system 
---------------------------------------------
  | Homo level                                        1
  | Lumo level                                        2
  | Total Number of states                           62
  | Number of k-points                                1
  | Homo-Lumo Gap                            0.07170890 Ha          1.95129854 eV
---------------------------------------------
  The ovlp_3KS matrix takes another      0 MiB x      4 procs =       0.000 GiB.


---------------------------------------------
| Sum of correlation terms 
---------------------------------------------
  | Pair state     1                    :        -10.30529618 eV        -10.30529618 eV

---------------------------------------------
| Correlation energy spectrum 
---------------------------------------------
  |     2    :         -0.19308265        -0.35207244
  |     3    :          0.18546334        -0.00154071
  |     4    :          0.19049199        -0.00937246
  |     5    :          0.38750653        -0.00100223
  |     6    :          0.38782291        -0.00098780
  |     7    :          0.38782291        -0.00098780
  |     8    :          0.38831691        -0.00096280
  |     9    :          0.38831691        -0.00096280
  |    10    :          0.38866606        -0.00095210
  |    11    :          0.96473403        -0.00134904
  |    12    :          0.97189154        -0.00306356
  |    13    :          1.20735595        -0.00010266
  |    14    :          1.20735639        -0.00010218
  |    15    :          1.20735642        -0.00010218
  |    16    :          1.20736016        -0.00010250
  |    17    :          1.20736016        -0.00010250
  |    18    :          1.20736355        -0.00010210
  |    19    :          1.20736358        -0.00010210
  |    20    :          1.20739043        -0.00010215
  |    21    :          1.20739043        -0.00010215
  |    22    :          1.20740628        -0.00010215
  |    23    :          1.83328339        -0.00047422
  |    24    :          1.83339813        -0.00047395
  |    25    :          1.83339813        -0.00047395
  |    26    :          1.83341162        -0.00047418
  |    27    :          1.83341162        -0.00047418
  |    28    :          1.83356369        -0.00047471
  |    29    :          3.48078622        -0.00002060
  |    30    :          3.48078622        -0.00002060
  |    31    :          3.48078629        -0.00002060
  |    32    :          3.48078629        -0.00002060
  |    33    :          3.48080141        -0.00002062
  |    34    :          3.48080148        -0.00002062
  |    35    :          3.48080183        -0.00002062
  |    36    :          3.48080190        -0.00002062
  |    37    :          3.48081045        -0.00002063
  |    38    :          3.48081045        -0.00002063
  |    39    :          3.48081153        -0.00002063
  |    40    :          3.48081153        -0.00002063
  |    41    :          3.48081356        -0.00002064
  |    42    :          3.48081507        -0.00002063
  |    43    :          3.84175816        -0.00027399
  |    44    :          3.85370087        -0.00033247
  |    45    :          5.32589896        -0.00003899
  |    46    :          5.32589902        -0.00003899
  |    47    :          5.32589977        -0.00003899
  |    48    :          5.32589983        -0.00003899
  |    49    :          5.32590973        -0.00003900
  |    50    :          5.32591105        -0.00003900
  |    51    :          5.32591105        -0.00003900
  |    52    :          5.32591560        -0.00003901
  |    53    :          5.32591560        -0.00003901
  |    54    :          5.32592753        -0.00003902
  |    55    :          8.57309936        -0.00004786
  |    56    :          8.57340979        -0.00004785
  |    57    :          8.57340979        -0.00004785
  |    58    :          8.57344856        -0.00004780
  |    59    :          8.57344856        -0.00004780
  |    60    :          8.57379383        -0.00004778
  |    61    :         21.83637489        -0.00000951
  |    62    :         21.87612465        -0.00000951
---------------------------------------------
 
 
 
          ---------------------------------------------
          | MP2 calculation comes to finish ...  
 
          ---------------------------------------------
          | Total time for calculating MP2 correction              :        0.000 s

          ---------------------------------------------

---------------------------------------------
  | HF Energy                      :         -0.75109676 Ha        -20.43838275 eV
  | MP2 correction                 :         -0.37871267 Ha        -10.30529618 eV
---------------------------------------------
  | Total Energy + MP2 correction  :         -1.12980943 Ha        -30.74367893 eV
---------------------------------------------

------------------------------------------------------------------------------
  Final output of selected total energy values:

  The following output summarizes some interesting total energy values
  at the end of a run (AFTER all relaxation, molecular dynamics, etc.).

  | Total energy of the DFT / Hartree-Fock s.c.f. calculation      :            -20.438382754 eV
  | Final zero-broadening corrected energy (caution - metals only) :            -20.438382754 eV
  | Total energy after the post-s.c.f. correlation calculation     :            -30.743678933 eV
  | For reference only, the value of 1 Hartree used in FHI-aims is :             27.211384500 eV

  Before relying on these values, please be sure to understand exactly which
  total energy value is referred to by a given number. Different objects may
  all carry the same name 'total energy'. Definitions:

  Total energy of the DFT / Hartree-Fock s.c.f. calculation:
  | Note that this energy does not include ANY quantities calculated after the
  | s.c.f. cycle, in particular not ANY RPA, MP2, etc. many-body perturbation terms.

  Final zero-broadening corrected energy:
  | For metallic systems only, a broadening of the occupation numbers at the Fermi
  | level can be extrapolated back to zero broadening by an electron-gas inspired
  | formula. For all systems that are not real metals, this value can be
  | meaningless and should be avoided.

  Total energy of the post-s.c.f. correlation calculation        :
  | The actual meaning of this energy depends on the setting for the 'total_energy_method'
  | keyword (MP2, RPA, rPT2, etc). If not sure, compare to the results listed above.

------------------------------------------------------------------------------

  Methods described in the following list of references were used in this FHI-aims run.
  If you publish the results, please make sure to cite these reference if they apply.
  FHI-aims is an academic code, and for our developers (often, Ph.D. students
  and postdocs), scientific credit in the community is essential.
  Thank you for helping us!

  For any use of FHI-aims, please cite:

    Volker Blum, Ralf Gehrke, Felix Hanke, Paula Havu, Ville Havu,
    Xinguo Ren, Karsten Reuter, and Matthias Scheffler,
    "Ab initio molecular simulations with numeric atom-centered orbitals"
    Computer Physics Communications 180, 2175-2196 (2009).
    http://dx.doi.org/10.1016/j.cpc.2009.06.022

  For Hartree-Fock, hybrid functionals, or many-body perturbation theory used in your run, please cite:

    Xinguo Ren, Patrick Rinke, Volker Blum, Juergen Wieferink, Alex Tkatchenko,
    Andrea Sanfilippo, Karsten Reuter, and Matthias Scheffler,
    "Resolution-of-identity approach to Hartree-Fock, hybrid density functionals,
     RPA, MP2, and GW with numeric atom-centered orbital basis functions"
    New Journal of Physics 14, 053020 (2012).
    http://dx.doi.org/10.1088/1367-2630/14/5/053020

  For the NAO-VCC-nZ basis sets used in this calculation, please cite:

    Igor Ying Zhang, Xinguo Ren, Patrick Rinke, Volker Blum, and Matthias Scheffler,
    "Numeric atom-centered-orbital basis sets with valence-correlation consistency from H to Ar"
    New Journal of Physics 15, 123033 (2013).
    http://dx.doi.org/10.1088/1367-2630/15/12/123033

  For the real-space grid partitioning and parallelization used in this calculation, please cite:

    Ville Havu, Volker Blum, Paula Havu, and Matthias Scheffler,
    "Efficient O(N) integration for all-electron electronic
    structure calculation using numerically tabulated basis functions"
    Journal of Computational Physics 228, 8367-8379 (2009).
    http://dx.doi.org/10.1016/j.jcp.2009.08.008

  Of course, there are many other important community references, e.g., those cited in the
  above references. Our list is limited to references that describe implementations in the FHI-aims
  code. The reason is purely practical (length of this list) - please credit others as well.

------------------------------------------------------------
          Leaving FHI-aims.
          Date     :  20140812, Time     :  112920.556

          Computational steps:
          | Number of self-consistency cycles          :           13

          Detailed time accounting                     :  max(cpu_time)    wall_clock(cpu1)
          | Total time                                 :       22.073 s          22.102 s
          | Preparation time                           :        0.176 s           0.200 s
          | Grid partitioning                          :        0.212 s           0.210 s
          | Preloading free-atom quantities on grid    :        0.068 s           0.066 s
          | Free-atom superposition energy             :        0.036 s           0.036 s
          | Total time for integrations                :        2.596 s           2.582 s
          | Product basis setup: Total time            :        0.000 s           0.000 s
          | Product basis: | 3-center integrations     :       12.465 s          12.472 s
          | Product basis: | 2-center integrations     :        0.252 s           0.250 s
          | Product basis: | 2-center linear algebra   :        0.088 s           0.088 s
          | Product basis: | 3-center x 2-center       :        0.024 s           0.023 s
          | Total time evaluating exchange matrix      :        0.172 s           0.159 s
          | Transforming ovlp_3fn to ovlp_3KS          :        0.012 s           0.011 s
          | Total time for solution of K.-S. equations :        0.036 s           0.020 s
          | Total time for density update              :        1.108 s           1.097 s
          | Total time for mixing                      :        0.308 s           0.308 s
          | Total time for Hartree multipole update    :        0.888 s           0.879 s
          | Total time for Hartree multipole sum       :        3.496 s           3.480 s
          | Total time for total energy evaluation     :        0.000 s           0.007 s

          Have a nice day.
------------------------------------------------------------
