  MPI-parallelism will be employed.
------------------------------------------------------------
          Invoking FHI-aims ...
          Version 072414
          Compiled on 2014/08/06 at 00:00:04 on host theobook58.

          When using FHI-aims, please cite the following reference:

          Volker Blum, Ralf Gehrke, Felix Hanke, Paula Havu,
          Ville Havu, Xinguo Ren, Karsten Reuter, and Matthias Scheffler,
          'Ab Initio Molecular Simulations with Numeric Atom-Centered Orbitals: FHI-aims',
          Computer Physics Communications 180, 2175-2196 (2009)

          For any questions about FHI-aims, please visit the aimsclub website
          with its forums and wiki. Contributions to both the forums and the
          wiki are warmly encouraged - they are for you, and everyone is welcome there.

------------------------------------------------------------

  Date     :  20140812, Time     :  112834.257
  Time zero on CPU 1             :   0.160000000000000E-01  s.
  Internal wall clock time zero  :           177074914.257  s.

  Using        4 parallel tasks.
  Task        0 on host theobook58 reporting.
  Task        1 on host theobook58 reporting.
  Task        2 on host theobook58 reporting.
  Task        3 on host theobook58 reporting.

  Performing system and environment tests:
  | Environment variable OMP_NUM_THREADS correctly set to 1.
  | Stacksize not measured: no C compiler
  | Checking for scalapack...
  | No scalapack compiled in.

  Obtaining array dimensions for all initial allocations:
  
  -----------------------------------------------------------------------
  Parsing control.in (first pass over file, find array dimensions only).
  The contents of control.in will be repeated verbatim below
  unless switched off by setting 'verbatim_writeout .false.' .
  in the first line of control.in .
  -----------------------------------------------------------------------
  
  xc                      hf
  total_energy_method     mp2
  relativistic            none
  occupation_type         integer 0.0001
  mixer                   pulay
  n_max_pulay             10
  charge_mix_param        0.6
  sc_iter_limit           600
  sc_accuracy_rho         1E-6
  sc_accuracy_eev         1E-4
  sc_accuracy_etot        1E-6
  override_illconditioning .true.
  charge                  0
  ################################################################################
  #
  #  FHI-aims code project
  # Igor Ying Zhang and Xinguo Ren, Fritz Haber Institute Berlin, 2012
  #
  #  Suggested "NAO-VCC-4Z" defaults for H atom (to be pasted into control.in file)
  #
  #  Please cite:
  #
  #  Igor Ying Zhang, Xinguo Ren, Patrick Rinke, Volker Blum, and Matthias Scheffler,
  #  "Numeric atom-centered-orbital basis sets with valence-correlation consistency from H to Ar"
  #  New Journal of Physics 15, 123033 (2013).
  #  http://dx.doi.org/10.1088/1367-2630/15/12/123033
  #
  ################################################################################
    species        H
  #     set basis set reference for FHI-aims output
      cite_reference NAO-VCC-2013
  #     global species definitions
      nucleus             1
      mass                1.00794
  #
      l_hartree           6
  #
      cut_pot             4.0  2.0  1.0
      basis_dep_cutoff    0e-4
  #
      radial_base         24 7.0
  radial_multiplier               6
      angular_grids       specified
        division   0.1930   50
        division   0.3175  110
        division   0.4293  194
        division   0.5066  302
        division   0.5626  434
        division   0.5922  590
  #      division   0.6227  974
  #      division   0.6868 1202
        outer_grid  770
  #      outer_grid  434
  ################################################################################
  #
  #  Definition of "minimal" basis
  #
  ################################################################################
  #     valence basis states
      valence      1  s   1.
  #     ion occupancy
      ion_occ      1  s   0.5
  ################################################################################
  
  
   basis_acc              1e-04
  #============================================
  # Optimization in      H for       NAO-VCC-4Z
  #============================================
  # (sp) correlation set
   hydro     1     s      1.15655525
   hydro     1     s      1.68684502
   hydro     1     s      2.46027686
   hydro     2     p      2.92145897
   hydro     2     p      4.14501835
   hydro     2     p      5.88102632
  # polarization set
   hydro     3     d      6.41446874
   hydro     3     d      7.67536483
   hydro     4     f     10.80870049
  # (sp) enhanced minimal set
   hydro     1     s      3.58833335
  
  -----------------------------------------------------------------------
  Completed first pass over input file control.in .
  -----------------------------------------------------------------------
  
  
  -----------------------------------------------------------------------
  Parsing geometry.in (first pass over file, find array dimensions only).
  The contents of geometry.in will be repeated verbatim below
  unless switched off by setting 'verbatim_writeout .false.' .
  in the first line of geometry.in .
  -----------------------------------------------------------------------
  
  atom             0.0             0.0             0.0    H
  atom             0.0             0.0             7.0    H
  
  -----------------------------------------------------------------------
  Completed first pass over input file geometry.in .
  -----------------------------------------------------------------------
  

  Basic array size parameters:
  | Number of species                 :        1
  | Number of atoms                   :        2
  | Max. basis fn. angular momentum   :        3
  | Max. atomic/ionic basis occupied n:        1
  | Max. number of basis fn. types    :        2
  | Max. radial fns per species/type  :       10
  | Max. logarithmic grid size        :     1131
  | Max. radial integration grid size :      149
  | Max. angular integration grid size:      770
  | Max. angular grid division number :        8
  | Radial grid for Hartree potential :     1131
  | Number of spin channels           :        1

------------------------------------------------------------
          Reading file control.in.
------------------------------------------------------------
 
  Hartree-Fock calculation starts ...... 
  Attention: this version of Hartree-Fock employs an auxiliary basis. 
 
  MP2 correlation energy calculation will be started after the DFT/HF calculation.
  Non-relativistic treatment of kinetic energy.
  Occupation type: Integer occupation.
  Using pulay charge density mixing.
  Pulay mixing - number of memorized iterations:   10
  Charge density mixing - mixing parameter:     0.6000
  Maximum number of s.-c. iterations  :   600
  Convergence accuracy of self-consistent charge density: 0.1000E-05
  Convergence accuracy of sum of eigenvalues: 0.1000E-03
  Convergence accuracy of total energy: 0.1000E-05
  override_illconditioning: Explicitly overriding any built-in checks for an ill-conditioned overlap matrix.
  *** WARNING: If you use this flag, you should really know what you are doing.
  *** DO NOT keep this flag set by default in all your control.in files.
  Charge =   0.000000E+00: Neutral system requested explicitly.
 
  Reading configuration options for species H                   .
  | Found nuclear charge :   1.0000
  | Found atomic mass :    1.00794000000000      amu
  | Found l_max for Hartree potential  :   6
  | Found cutoff potl. onset [A], width [A], scale factor :    4.00000    2.00000    1.00000
  | Threshold for basis-dependent cutoff potential is   0.000000E+00
  | Found data for basic radial integration grid :    24 points, outermost radius =    7.000 A
  | Found multiplier for basic radial grid :   6
  | Found angular grid specification: user-specified.
  | Specified grid contains     7 separate shells.
  | Check grid settings after all constraints further below.
  | Found free-atom valence shell :  1 s   1.000
  | No ionic wave fns used. Skipping ion_occ.
  | Found basis singularity cutoff : 0.1000E-03
  | Found hydrogenic basis function :  1 s   1.157
  | Found hydrogenic basis function :  1 s   1.687
  | Found hydrogenic basis function :  1 s   2.460
  | Found hydrogenic basis function :  2 p   2.921
  | Found hydrogenic basis function :  2 p   4.145
  | Found hydrogenic basis function :  2 p   5.881
  | Found hydrogenic basis function :  3 d   6.414
  | Found hydrogenic basis function :  3 d   7.675
  | Found hydrogenic basis function :  4 f  10.809
  | Found hydrogenic basis function :  1 s   3.588
  Species H                   : Missing cutoff potential type.
  Defaulting to exp(1/x)/(1-x)^2 type cutoff potential.
  Species H : No 'logarithmic' tag. Using default grid for free atom:
  | Default logarithmic grid data [bohr] : 0.1000E-03 0.1000E+03 0.1012E+01
  Species H                   : Using default innermost maximum threshold i_radial=  2 for radial functions.
  Species H                   : Default cutoff onset for free atom density etc. is infinite
  since the product basis is used (hybrid functionals, Hartree-Fock, GW etc.).
  Species H                   : Basic radial grid will be enhanced according to radial_multiplier =   6, to contain   149 grid points.
 
  Finished reading input file 'control.in'. Consistency checks are next.
 
  Species H: Using default value for prodbas_acc =   1.000000E-02.
  Species H: Using default value max_l_prodbas =     5.
  Target number of points in a grid batch is not set. Defaulting to  100
  Method for grid partitioning is not set. Defaulting to parallel hash+maxmin partitioning.
  Batch size limit is not set. Defaulting to    200
  By default, will store active basis functions for each batch.
  If in need of memory, prune_basis_once .false. can be used to disable this option.
  communication_type for Hartree potential was not specified.
  Defaulting to calc_hartree .
  Pulay mixer: Number of initial linear mixing iterations not set.
  Defaulting to    0 iterations.
  Work space size for distributed Hartree potential not set.
  Defaulting to   0.200000E+03 MB.
  Algorithm-dependent basis array size parameters:
  | n_max_pulay                         :       10
  Calculation of forces was not defined in control.in. No forces will be calculated.
  Geometry relaxation not requested: no relaxation will be performed.
  No accuracy limit for integral partition fn. given. Defaulting to 0.1000E-14.
  No threshold value for u(r) in integrations given. Defaulting to 0.1000E-05.
  No accuracy for occupation numbers given. Defaulting to 0.1000E-07.
  No threshold value for occupation numbers given. Defaulting to 0.0000E+00.
  No accuracy for fermi level given. Defaulting to 0.1000E-19.
  Maximum # of iterations to find E_F not set. Defaulting to  200.
  Preferred method for the eigenvalue solver ('KS_method') not specified in 'control.in'.
  Calling blacs routine to test compilation state
  The best choice would be 'elpa', but your version of FHI-aims is compiled without scalapack support.
  Defaulting to 'lapack_fast' instead (serial solution, time will not improve with more CPUs).
  Will not use alltoall communication since running on < 1024 CPUs.
  Threshold for basis singularities not set.
  Default threshold for basis singularities: 0.1000E-04
  partition_type (choice of integration weights) for integrals was not specified.
  | Using a version of the partition function of Stratmann and coworkers ('stratmann_smoother').
  | At each grid point, the set of atoms used to build the partition table is smoothly restricted to
  | only those atoms whose free-atom density would be non-zero at that grid point.
  Partitioning for Hartree potential was not defined. Using partition_type for integrals.
  | Adjusted default value of keyword multip_moments_threshold to:       0.10000000E-11
  | This value may affect high angular momentum components of the Hartree potential in periodic systems.
  Spin handling was not defined in control.in. Defaulting to unpolarized case.
  Threshold for auxiliary basis singularities not set.
  Default threshold for auxiliary basis singularities: 0.1000E-04
  No q(lm)/r^(l+1) cutoff set for long-range Hartree potential.
  | Using default value of  0.100000E-09 .
  | Verify using the multipole_threshold keyword.
  Defaulting to new monopole extrapolation.
  Density update method: automatic selection selected.
  Default to 1D ("use_logsbt") integrations for auxiliary 2-center integrals.
  Default onset of logarithmic r-grid for SBT is-38.000000000000
  Default onset of logarithmic k-grid for SBT is-25.000000000000
  Default range of logarithmic r- and k-grid for SBT is 45.000000000000
  Default number of logarithmic r- and k-grid for SBT is  4096
------------------------------------------------------------


------------------------------------------------------------
          Reading geometry description geometry.in.
------------------------------------------------------------
  Input structure read successfully.
  The structure contains        2 atoms,  and a total of          2.000 electrons.

  Input geometry:
  | No unit cell requested.
  | Atomic structure:
  |       Atom                x [A]            y [A]            z [A]
  |    1: Species H              0.000000         0.000000         0.000000
  |    2: Species H              0.000000         0.000000         7.000000
  |

  | The smallest distance between any two atoms is         7.00000000 AA.
  |
  | The first atom of this pair is atom number                      1 .
  | The second atom of this pair is atom number                     2 .

  Number of empty states per atom not set in control.in .
  | Since you are using a method that relies on the unoccupied spectrum
  | (MP2,GW,RPA et al.), will use the full Hamiltonian size (see below)
  | as the max. possible number of states (occupied plus empty).

  Structure-dependent array size parameters: 
  | Maximum number of distinct radial functions  :       11
  | Maximum number of basis functions            :       62
  | Number of Kohn-Sham states (occupied + empty):       62
------------------------------------------------------------

------------------------------------------------------------
          Preparing all fixed parts of the calculation.
------------------------------------------------------------
  Determining machine precision:
    2.225073858507201E-308
  Setting up grids for atomic and cluster calculations.

  Creating wave function, potential, and density for free atoms.

  Species: H

  List of occupied orbitals and eigenvalues:
    n    l              occ      energy [Ha]    energy [eV]
    1    0           1.0000        -0.233457        -6.3527

  Creating fixed part of basis set: Ionic, confined, hydrogenic.
 
  H                    hydrogenic:
 
  List of hydrogenic basis orbitals: 
    n    l      effective z      eigenvalue [eV]  inner max. [A]     outer max. [A]     outer radius [A]   
    1    0         1.156555       -18.1992           0.460320           0.460320           5.243229
    1    0         1.686845       -38.7143           0.315118           0.315118           4.932336
    1    0         2.460277       -82.3547           0.215718           0.215718           3.815562
    2    1         2.921459       -29.0309           0.723605           0.723605           5.243229
    2    1         4.145018       -58.4405           0.507614           0.507614           4.813203
    2    1         5.881026      -117.6432           0.360475           0.360475           3.678162
    3    2         6.414469       -62.2013           0.741515           0.741515           4.993004
    3    2         7.675365       -89.0587           0.617279           0.617279           4.583499
    4    3        10.808700       -99.3454           0.778676           0.778676           4.696947
    1    0         3.588333      -175.1887           0.147673           0.147673           2.644120
 

  Adding cutoff potential to free-atom effective potential.
  Creating atomic-like basis functions for current effective potential.

  Species H                   :

  List of atomic basis orbitals and eigenvalues:
    n    l      energy [Ha]    energy [eV]    outer radius [A]
    1    0        -0.233418        -6.3516       5.373006

  Assembling full basis from fixed parts.
  | Species H :   atomic orbital   1 s accepted.
  | Species H :    hydro orbital   1 s accepted.
  | Species H :    hydro orbital   1 s accepted.
  | Species H :    hydro orbital   1 s accepted.
  | Species H :    hydro orbital   1 s accepted.
  | Species H :    hydro orbital   2 p accepted.
  | Species H :    hydro orbital   2 p accepted.
  | Species H :    hydro orbital   2 p accepted.
  | Species H :    hydro orbital   3 d accepted.
  | Species H :    hydro orbital   3 d accepted.
  | Species H :    hydro orbital   4 f accepted.
 
  Basis size parameters after reduction:
  | Total number of radial functions:       11
  | Total number of basis functions :       62
 
  Testing on-site integration grid accuracy.
  |  Species  Function  <phi|h_atom|phi> (log., in eV)  <phi|h_atom|phi> (rad., in eV)
           1        1                 -6.3519216712                 -6.3519215989
           1        2                  8.4716038567                  8.4716058028
           1        3                 58.3749927434                 58.3750109815
           1        4                178.9024737125                178.9026031671
           1        5                456.3642310330                456.3649721232
           1        6                 16.2415699263                 16.2415699338
           1        7                 68.2932618880                 68.2932619123
           1        8                188.3801588017                188.3801587562
           1        9                 49.9849006789                 49.9849006869
           1       10                114.3821731125                114.3821730675
           1       11                 88.0899419283                 88.0899419237

  Preparing densities etc. for the partition functions (integrals / Hartree potential).

  Preparations completed.
  max(cpu_time)          :      0.200 s.
  Wall clock time (cpu1) :      0.221 s.
------------------------------------------------------------

------------------------------------------------------------
          Begin self-consistency loop: Initialization.

          Date     :  20140812, Time     :  112834.483
------------------------------------------------------------

  Initializing index lists of integration centers etc. from given atomic structure:
  | Number of centers in hartree potential         :         2
  | Number of centers in hartree multipole         :         2
  | Number of centers in electron density summation:         2
  | Number of centers in basis integrals           :         2
  | Number of centers in integrals                 :         2
  Partitioning the integration grid into batches with parallel hashing+maxmin method.
  | Number of batches:     1141
  | Maximal batch size:     150
  | Minimal batch size:      65
  | Average batch size:     126.559
  | Standard deviation of batch sizes:      29.159

  Integration load balanced across     4 MPI tasks.
  Work distribution over tasks is as follows:
  Task     0 has      36104 integration points.
  Task     1 has      36122 integration points.
  Task     2 has      36021 integration points.
  Task     3 has      36157 integration points.
  Initializing partition tables, free-atom densities, potentials, etc. across the integration grid (initialize_grid_storage).
  | Original list of interatomic distances with           2 x          2 entries is created.
  | Net number of integration points:   144404
  | of which are non-zero points    :   143682
  Obtaining max. number of non-zero basis functions in each batch (get_n_compute_maxes).
  | Maximal number of non-zero basis functions:       62 in task     0
  | Maximal number of non-zero basis functions:       62 in task     1
  | Maximal number of non-zero basis functions:       62 in task     2
  | Maximal number of non-zero basis functions:       62 in task     3
  Selecting the method for density update.
  Loop over occupied states selected for charge density update.
  Integrating Hamiltonian matrix: batch-based integration.
  Time summed over all CPUs for integration: real work        0.778 s, elapsed        0.798 s
  Integrating overlap matrix.
  Time summed over all CPUs for integration: real work        0.414 s, elapsed        0.426 s

  Updating Kohn-Sham eigenvalues, eigenvectors, occupation numbers, and Fermi level.
  Solving generalized eigenproblem
  Updating Kohn-Sham eigenvalues and eigenfunctions.
  Transforming overlap matrix and checking for singularities.
  Overlap matrix is nonsingular:
  | Lowest eigenvalue:  0.980046E+00
  Solving real generalised eigenvalue problem by standard LAPACK (fast)
  Determining occupation numbers for Kohn-Sham eigenstates.
  | Chemical potential (Fermi level) in eV                 : -.63519446E+01
  | Error in electron count due to remaining E_F inaccuracy: 0.00000000E+00
  | Maximum occupation number of highest empty state:  0.00E+00

  Writing Kohn-Sham eigenvalues.

  State    Occupation    Eigenvalue [Ha]    Eigenvalue [eV]
      1       2.00000          -0.233478           -6.35326
      2       0.00000          -0.233381           -6.35063
      3       0.00000           0.096610            2.62888
      4       0.00000           0.103842            2.82567
      5       0.00000           0.245182            6.67175
      6       0.00000           0.245307            6.67513
      7       0.00000           0.245307            6.67513
      8       0.00000           0.245321            6.67553
      9       0.00000           0.245321            6.67553
     10       0.00000           0.245455            6.67918
     11       0.00000           0.771595           20.99617
     12       0.00000           0.784203           21.33924
     13       0.00000           1.022701           27.82911
     14       0.00000           1.022707           27.82928
     15       0.00000           1.022707           27.82928
     16       0.00000           1.022708           27.82930
     17       0.00000           1.022708           27.82930
     18       0.00000           1.022708           27.82931
     19       0.00000           1.022708           27.82931
     20       0.00000           1.022709           27.82933
     21       0.00000           1.022709           27.82933
     22       0.00000           1.022718           27.82957
     23       0.00000           1.588358           43.22141
     24       0.00000           1.588711           43.23102
     25       0.00000           1.588711           43.23102
     26       0.00000           1.588751           43.23211
     27       0.00000           1.588751           43.23211
     28       0.00000           1.589126           43.24231
     29       0.00000           3.237246           88.08994
     30       0.00000           3.237246           88.08994
     31       0.00000           3.237246           88.08994
     32       0.00000           3.237246           88.08994
     33       0.00000           3.237246           88.08994
     34       0.00000           3.237246           88.08994
     35       0.00000           3.237246           88.08994
     36       0.00000           3.237246           88.08994
     37       0.00000           3.237246           88.08994
     38       0.00000           3.237246           88.08994
     39       0.00000           3.237246           88.08994
     40       0.00000           3.237246           88.08994
     41       0.00000           3.237246           88.08994
     42       0.00000           3.237246           88.08995
     43       0.00000           3.514434           95.63261
     44       0.00000           3.536293           96.22742
     45       0.00000           5.017647          136.53712
     46       0.00000           5.017668          136.53768
     47       0.00000           5.017668          136.53768
     48       0.00000           5.017671          136.53776
     49       0.00000           5.017671          136.53776
     50       0.00000           5.017671          136.53777
     51       0.00000           5.017671          136.53777
     52       0.00000           5.017674          136.53785
     53       0.00000           5.017674          136.53785
     54       0.00000           5.017698          136.53852
     55       0.00000           8.194437          222.98199
     56       0.00000           8.195346          223.00672
     57       0.00000           8.195346          223.00672
     58       0.00000           8.195447          223.00945
     59       0.00000           8.195447          223.00945
     60       0.00000           8.196407          223.03557
     61       0.00000          21.362502          581.30327
     62       0.00000          21.437183          583.33543

  Highest occupied state (VBM) at     -6.35325827 eV
  | Occupation number:      2.00000000

  Lowest unoccupied state (CBM) at    -6.35063086 eV
  | Occupation number:      0.00000000

  Overall HOMO-LUMO gap:      0.00262741 eV.
  Calculating total energy contributions from superposition of free atom densities.

  Total energy components:
  | Sum of eigenvalues            :          -0.46695590 Ha         -12.70651654 eV
  | XC energy correction          :          -0.46495662 Ha         -12.65211335 eV
  | XC potential correction       :           0.60607333 Ha          16.49209454 eV
  | Free-atom electrostatic energy:          -0.56553593 Ha         -15.38901556 eV
  | Hartree energy correction     :           0.00000000 Ha           0.00000000 eV
  | Entropy correction            :           0.00000000 Ha           0.00000000 eV
  | ---------------------------
  | Total energy                  :          -0.89137511 Ha         -24.25555091 eV
  | Total energy, T -> 0          :          -0.89137511 Ha         -24.25555091 eV  <-- do not rely on this value for anything but (periodic) metals
  | Electronic free energy        :          -0.89137511 Ha         -24.25555091 eV

  Derived energy quantities:
  | Kinetic energy                :           0.84968616 Ha          23.12113687 eV
  | Electrostatic energy          :          -1.27610465 Ha         -34.72457443 eV
  | Energy correction for multipole
  | error in Hartree potential    :           0.00000000 Ha           0.00000000 eV
  | Sum of eigenvalues per atom                           :          -6.35325827 eV
  | Total energy (T->0) per atom                          :         -12.12777545 eV  <-- do not rely on this value for anything but (periodic) metals
  | Electronic free energy per atom                       :         -12.12777545 eV
 
 --------------------------------------------
  Constructing auxiliary basis (full product) ...
 
  Product basis:
  | charge radius: extent of product basis function
  | field radius: extent of its Coulomb potential
  | Species   l  charge radius    field radius  multipol momen
  |    H      5     4.813203 A      4.813203 A  2.676041E-15 a.u.
  |    H      4     4.932336 A      4.932336 A  2.417679E-16 a.u.
  |    H      3     5.054418 A      5.054418 A  ************ a.u.
  |    H      4     5.054418 A      5.054418 A  ************ a.u.
  |    H      3     5.116587 A      5.116587 A  1.642688E-15 a.u.
  |    H      2     5.179521 A      5.179521 A  6.126280E-16 a.u.
  |    H      3     5.179521 A      5.179521 A  ************ a.u.
  |    H      2     5.243229 A      5.243229 A  1.485543E-16 a.u.
  |    H      2     5.243229 A      5.243229 A  1.683301E-16 a.u.
  |    H      2     5.243229 A      5.243229 A  ************ a.u.
  |    H      3     5.243229 A      5.243229 A  ************ a.u.
  |    H      1     5.307721 A      5.307721 A  2.416866E-16 a.u.
  |    H      1     5.307721 A      5.307721 A  1.291012E-16 a.u.
  |    H      2     5.307721 A      5.307721 A  7.871382E-16 a.u.
  |    H      0     5.373006 A      5.373006 A  9.519909E-17 a.u.
  |    H      1     5.373006 A      5.373006 A  2.334090E-16 a.u.
  |    H      1     5.373006 A      5.373006 A  ************ a.u.
  |    H      1     5.373006 A      5.373006 A  ************ a.u.
  |    H      1     5.373006 A      5.373006 A  1.823473E-16 a.u.
  |    H      0     5.373006 A      5.439094 A  ************ a.u.
  |    H      0     5.439094 A      5.439094 A  ************ a.u.
  |    H      0     5.439094 A      5.505995 A  9.305319E-17 a.u.
  |    H      0     5.439094 A      5.505995 A  4.082184E-17 a.u.
  |    H      0     5.439094 A      5.505995 A  3.169850E-16 a.u.
  |    H      0     5.439094 A      5.505995 A  2.711689E-16 a.u.
  |    H      5     4.872405 A  1.325110E+02 A           19.619780 a.u.
  |    H      4     5.054418 A  3.771796E+02 A           14.639479 a.u.
  |    H      3     5.243229 A  1.836978E+03 A           11.555842 a.u.
  |    H      2     5.307721 A  2.095310E+04 A            4.940052 a.u.
  |    H      1     5.373006 A  2.512347E+06 A            1.793689 a.u.
  |    H      0     5.439094 A  4.604132E+12 A            0.692368 a.u.

  | Shrink_full_auxil_basis : there are       31  radial auxiliary wave functions
                            accepted and      90 rejected.
  | Shrink_full_auxil_basis : there are totally     286 partial auxiliary wave functions.
 
  | Number of product basis functions per thread :    72
  | Minimal requirement for computer memories :           0.005 Gbs
 
  Basis pair condensation :      1953  -->       1953
 
 ----------------------------------------------------
  Integrating the 3-basis-function Coulomb matrix ...
  | i_atom:            1
  | i_atom:            2
  Integrating the Coulomb interaction matrix for auxiliary basis functions (by atoms)

  SBT integration errors (all should be 'small'):
  large logFT aliasing -> increase N/lnrange
  large SBT aliasing -> decrease lnk0 & increase lnk0+lnrange
  large SBT ringing -> decrease lnr0 & increase lnr0+lnrange
  |            El't  L: logFT-al.   small-k   large-k   small-r   large-r
  Atomic logSBT for 2-center Coulomb matrix    :  max(cpu_time)    wall_clock(cpu1)
  | Multiplication with kernel                 :        0.028 s           0.010 s
  | Main matrix multiplication                 :        0.056 s           0.044 s
  | Analytic angular integration               :        0.008 s           0.001 s
  | Kernel construction                        :        0.004 s           0.002 s
  | Overall 2-center overlap time              :        0.096 s           0.062 s

  Difference of Coulomb matrix to its transposed:  9.9638E-17
  Task     0: Eigenvalues of the Coulomb matrix range from    1.5197E+00 to    4.8021E-01.
  Task     0: Using      286   eigenvalues out of rank      286   Coulomb matrix (auxiliary basis).
 
  Multiplying V^-0.5 x ovlp_3fn (1d-scalapack)

  Initialize hartree_potential_storage
  Max. number of atoms included in rho_multipole:            2

  End scf initialization - timings             :  max(cpu_time)    wall_clock(cpu1)
  | Time for scf. initialization               :       15.237 s          15.255 s
  | Boundary condition initialization          :        0.000 s           0.000 s
  | Integration                                :        0.308 s           0.306 s
  | Solution of K.-S. eqns.                    :        0.004 s           0.005 s
  | Grid partitioning                          :        0.280 s           0.277 s
  | Preloading free-atom quantities on grid    :        0.068 s           0.066 s
  | Free-atom superposition energy             :        0.036 s           0.035 s
  | Total energy evaluation                    :        0.000 s           0.001 s
  | Product basis setup: Total time            :       14.477 s          14.490 s
  | Product basis: | 3-center integrations     :       14.009 s          14.017 s
  | Product basis: | 2-center integrations     :        0.256 s           0.254 s
  | Product basis: | 2-center linear algebra   :        0.088 s           0.089 s
  | Product basis: | 3-center x 2-center       :        0.024 s           0.023 s
------------------------------------------------------------

------------------------------------------------------------
          Begin self-consistency iteration #    1

  Date     :  20140812, Time     :  112849.738
------------------------------------------------------------
  Evaluating new KS density.
  Integration grid: deviation in total charge (<rho> - N_e) =  -3.641532E-14
  Pulay mixing of updated and previous charge densities.

  Evaluating partitioned Hartree potential by multipole expansion.
  | Analytical far-field extrapolation by fixed multipoles:
  | Hartree multipole sum: apparent total charge =  -0.117206E-06
  Summing up the Hartree potential.
  Time summed over all CPUs for potential: real work        1.037 s, elapsed        1.042 s
  | RMS charge density error from multipole expansion :   0.177380E-05

  Integrating Hamiltonian matrix: batch-based integration.
  Time summed over all CPUs for integration: real work        0.668 s, elapsed        0.673 s
  Evaluating the exchange matrix ... 

  Updating Kohn-Sham eigenvalues, eigenvectors, occupation numbers, and Fermi level.
  Solving generalized eigenproblem
  Updating Kohn-Sham eigenvalues and eigenfunctions.
  Solving real generalised eigenvalue problem by standard LAPACK (fast)
  Determining occupation numbers for Kohn-Sham eigenstates.
  | Chemical potential (Fermi level) in eV                 : -.58766904E+01
  | Error in electron count due to remaining E_F inaccuracy: 0.00000000E+00
  | Maximum occupation number of highest empty state:  0.00E+00

  Writing Kohn-Sham eigenvalues.

  State    Occupation    Eigenvalue [Ha]    Eigenvalue [eV]
      1       2.00000          -0.253669           -6.90268
      2       0.00000          -0.178260           -4.85070
      3       0.00000           0.186084            5.06362
      4       0.00000           0.195377            5.31649
      5       0.00000           0.398553           10.84518
      6       0.00000           0.398943           10.85579
      7       0.00000           0.398943           10.85579
      8       0.00000           0.399461           10.86989
      9       0.00000           0.399461           10.86989
     10       0.00000           0.399888           10.88151
     11       0.00000           0.977222           26.59157
     12       0.00000           0.990156           26.94352
     13       0.00000           1.220478           33.21089
     14       0.00000           1.220492           33.21128
     15       0.00000           1.220492           33.21128
     16       0.00000           1.220504           33.21162
     17       0.00000           1.220504           33.21162
     18       0.00000           1.220513           33.21184
     19       0.00000           1.220513           33.21184
     20       0.00000           1.220527           33.21224
     21       0.00000           1.220527           33.21224
     22       0.00000           1.220546           33.21274
     23       0.00000           1.857159           50.53585
     24       0.00000           1.857527           50.54588
     25       0.00000           1.857527           50.54588
     26       0.00000           1.857570           50.54705
     27       0.00000           1.857570           50.54705
     28       0.00000           1.857966           50.55782
     29       0.00000           3.501997           95.29418
     30       0.00000           3.501997           95.29418
     31       0.00000           3.501997           95.29418
     32       0.00000           3.501997           95.29418
     33       0.00000           3.501997           95.29420
     34       0.00000           3.501997           95.29420
     35       0.00000           3.501998           95.29420
     36       0.00000           3.501998           95.29420
     37       0.00000           3.501998           95.29420
     38       0.00000           3.501998           95.29421
     39       0.00000           3.501998           95.29421
     40       0.00000           3.501999           95.29424
     41       0.00000           3.501999           95.29424
     42       0.00000           3.502000           95.29426
     43       0.00000           3.872754          105.38301
     44       0.00000           3.894909          105.98585
     45       0.00000           5.359799          145.84756
     46       0.00000           5.359821          145.84814
     47       0.00000           5.359821          145.84814
     48       0.00000           5.359824          145.84823
     49       0.00000           5.359824          145.84823
     50       0.00000           5.359825          145.84825
     51       0.00000           5.359825          145.84825
     52       0.00000           5.359830          145.84839
     53       0.00000           5.359830          145.84839
     54       0.00000           5.359856          145.84910
     55       0.00000           8.618358          234.51744
     56       0.00000           8.619283          234.54263
     57       0.00000           8.619283          234.54263
     58       0.00000           8.619392          234.54558
     59       0.00000           8.619392          234.54558
     60       0.00000           8.620372          234.57226
     61       0.00000          21.875650          595.26671
     62       0.00000          21.950557          597.30506

  Highest occupied state (VBM) at     -6.90268197 eV
  | Occupation number:      2.00000000

  Lowest unoccupied state (CBM) at    -4.85069888 eV
  | Occupation number:      0.00000000

  Overall HOMO-LUMO gap:      2.05198310 eV.

  Total energy components:
  | Sum of eigenvalues            :          -0.50733780 Ha         -13.80536394 eV
  | XC energy correction          :           0.32058181 Ha           8.72347502 eV
  | XC potential correction       :           0.00000000 Ha           0.00000000 eV
  | Free-atom electrostatic energy:          -0.56553593 Ha         -15.38901556 eV
  | Hartree energy correction     :          -0.00001857 Ha          -0.00050543 eV
  | Entropy correction            :           0.00000000 Ha           0.00000000 eV
  | ---------------------------
  | Total energy                  :          -0.75231049 Ha         -20.47140991 eV
  | Total energy, T -> 0          :          -0.75231049 Ha         -20.47140991 eV  <-- do not rely on this value for anything but (periodic) metals
  | Electronic free energy        :          -0.75231049 Ha         -20.47140991 eV

  Derived energy quantities:
  | Kinetic energy                :           0.84433661 Ha          22.97556810 eV
  | Electrostatic energy          :          -1.27606528 Ha         -34.72350299 eV
  | Energy correction for multipole
  | error in Hartree potential    :           0.00000001 Ha           0.00000016 eV
  | Sum of eigenvalues per atom                           :          -6.90268197 eV
  | Total energy (T->0) per atom                          :         -10.23570495 eV  <-- do not rely on this value for anything but (periodic) metals
  | Electronic free energy per atom                       :         -10.23570495 eV

  Self-consistency convergence accuracy:
  | Change of charge density      : 0.6063E-04
  | Change of sum of eigenvalues  : -.1099E+01 eV
  | Change of total energy        : 0.3784E+01 eV

  End self-consistency iteration #     1       :  max(cpu_time)    wall_clock(cpu1)
  | Time for this iteration                    :        0.604 s           0.603 s
  | Charge density update                      :        0.088 s           0.089 s
  | Density mixing                             :        0.004 s           0.002 s
  | Hartree multipole update                   :        0.068 s           0.067 s
  | Hartree multipole summation                :        0.264 s           0.262 s
  | Integration                                :        0.168 s           0.168 s
  | Fock matrix evaluation                     :        0.012 s           0.012 s
  | Solution of K.-S. eqns.                    :        0.004 s           0.002 s
  | Total energy evaluation                    :        0.000 s           0.000 s
------------------------------------------------------------

------------------------------------------------------------
          Begin self-consistency iteration #    2

  Date     :  20140812, Time     :  112850.342
------------------------------------------------------------
  Evaluating new KS density.
  Integration grid: deviation in total charge (<rho> - N_e) =   4.440892E-15
  Pulay mixing of updated and previous charge densities.

  Evaluating partitioned Hartree potential by multipole expansion.
  | Analytical far-field extrapolation by fixed multipoles:
  | Hartree multipole sum: apparent total charge =  -0.117177E-06
  Summing up the Hartree potential.
  Time summed over all CPUs for potential: real work        1.042 s, elapsed        1.055 s
  | RMS charge density error from multipole expansion :   0.177105E-05

  Integrating Hamiltonian matrix: batch-based integration.
  Time summed over all CPUs for integration: real work        0.671 s, elapsed        0.684 s
  Evaluating the exchange matrix ... 

  Updating Kohn-Sham eigenvalues, eigenvectors, occupation numbers, and Fermi level.
  Solving generalized eigenproblem
  Updating Kohn-Sham eigenvalues and eigenfunctions.
  Solving real generalised eigenvalue problem by standard LAPACK (fast)
  Determining occupation numbers for Kohn-Sham eigenstates.
  | Chemical potential (Fermi level) in eV                 : -.58765447E+01
  | Error in electron count due to remaining E_F inaccuracy: 0.00000000E+00
  | Maximum occupation number of highest empty state:  0.00E+00

  Highest occupied state (VBM) at     -6.90253362 eV
  | Occupation number:      2.00000000

  Lowest unoccupied state (CBM) at    -4.85055587 eV
  | Occupation number:      0.00000000

  Overall HOMO-LUMO gap:      2.05197775 eV.

  Total energy components:
  | Sum of eigenvalues            :          -0.50732690 Ha         -13.80506723 eV
  | XC energy correction          :           0.30843860 Ha           8.39304132 eV
  | XC potential correction       :           0.00000000 Ha           0.00000000 eV
  | Free-atom electrostatic energy:          -0.56553593 Ha         -15.38901556 eV
  | Hartree energy correction     :          -0.00004057 Ha          -0.00110397 eV
  | Entropy correction            :           0.00000000 Ha           0.00000000 eV
  | ---------------------------
  | Total energy                  :          -0.76446479 Ha         -20.80214545 eV
  | Total energy, T -> 0          :          -0.76446479 Ha         -20.80214545 eV  <-- do not rely on this value for anything but (periodic) metals
  | Electronic free energy        :          -0.76446479 Ha         -20.80214545 eV

  Derived energy quantities:
  | Kinetic energy                :           0.82008103 Ha          22.31554028 eV
  | Electrostatic energy          :          -1.27610723 Ha         -34.72464441 eV
  | Energy correction for multipole
  | error in Hartree potential    :           0.00000001 Ha           0.00000016 eV
  | Sum of eigenvalues per atom                           :          -6.90253362 eV
  | Total energy (T->0) per atom                          :         -10.40107273 eV  <-- do not rely on this value for anything but (periodic) metals
  | Electronic free energy per atom                       :         -10.40107273 eV

  Self-consistency convergence accuracy:
  | Change of charge density      : 0.2933E-01
  | Change of sum of eigenvalues  : 0.2967E-03 eV
  | Change of total energy        : -.3307E+00 eV

  End self-consistency iteration #     2       :  max(cpu_time)    wall_clock(cpu1)
  | Time for this iteration                    :        0.616 s           0.617 s
  | Charge density update                      :        0.096 s           0.094 s
  | Density mixing                             :        0.008 s           0.006 s
  | Hartree multipole update                   :        0.068 s           0.067 s
  | Hartree multipole summation                :        0.268 s           0.265 s
  | Integration                                :        0.172 s           0.171 s
  | Fock matrix evaluation                     :        0.012 s           0.012 s
  | Solution of K.-S. eqns.                    :        0.004 s           0.002 s
  | Total energy evaluation                    :        0.000 s           0.000 s
------------------------------------------------------------

------------------------------------------------------------
          Begin self-consistency iteration #    3

  Date     :  20140812, Time     :  112850.960
------------------------------------------------------------
  Evaluating new KS density.
  Integration grid: deviation in total charge (<rho> - N_e) =   0.000000E+00
  Pulay mixing of updated and previous charge densities.

  Evaluating partitioned Hartree potential by multipole expansion.
  | Analytical far-field extrapolation by fixed multipoles:
  | Hartree multipole sum: apparent total charge =  -0.116573E-06
  Summing up the Hartree potential.
  Time summed over all CPUs for potential: real work        1.037 s, elapsed        1.046 s
  | RMS charge density error from multipole expansion :   0.170260E-05

  Integrating Hamiltonian matrix: batch-based integration.
  Time summed over all CPUs for integration: real work        0.690 s, elapsed        0.702 s
  Evaluating the exchange matrix ... 

  Updating Kohn-Sham eigenvalues, eigenvectors, occupation numbers, and Fermi level.
  Solving generalized eigenproblem
  Updating Kohn-Sham eigenvalues and eigenfunctions.
  Solving real generalised eigenvalue problem by standard LAPACK (fast)
  Determining occupation numbers for Kohn-Sham eigenstates.
  | Chemical potential (Fermi level) in eV                 : -.58729631E+01
  | Error in electron count due to remaining E_F inaccuracy: 0.00000000E+00
  | Maximum occupation number of highest empty state:  0.00E+00

  Highest occupied state (VBM) at     -6.89889079 eV
  | Occupation number:      2.00000000

  Lowest unoccupied state (CBM) at    -4.84703547 eV
  | Occupation number:      0.00000000

  Overall HOMO-LUMO gap:      2.05185532 eV.

  Total energy components:
  | Sum of eigenvalues            :          -0.50705915 Ha         -13.79778159 eV
  | XC energy correction          :           0.30855459 Ha           8.39619772 eV
  | XC potential correction       :           0.00000000 Ha           0.00000000 eV
  | Free-atom electrostatic energy:          -0.56553593 Ha         -15.38901556 eV
  | Hartree energy correction     :          -0.00058460 Ha          -0.01590764 eV
  | Entropy correction            :           0.00000000 Ha           0.00000000 eV
  | ---------------------------
  | Total energy                  :          -0.76462508 Ha         -20.80650707 eV
  | Total energy, T -> 0          :          -0.76462508 Ha         -20.80650707 eV  <-- do not rely on this value for anything but (periodic) metals
  | Electronic free energy        :          -0.76462508 Ha         -20.80650707 eV

  Derived energy quantities:
  | Kinetic energy                :           0.82104921 Ha          22.34188567 eV
  | Electrostatic energy          :          -1.27711969 Ha         -34.75219502 eV
  | Energy correction for multipole
  | error in Hartree potential    :           0.00000001 Ha           0.00000015 eV
  | Sum of eigenvalues per atom                           :          -6.89889079 eV
  | Total energy (T->0) per atom                          :         -10.40325353 eV  <-- do not rely on this value for anything but (periodic) metals
  | Electronic free energy per atom                       :         -10.40325353 eV

  Self-consistency convergence accuracy:
  | Change of charge density      : 0.2935E-01
  | Change of sum of eigenvalues  : 0.7286E-02 eV
  | Change of total energy        : -.4362E-02 eV

  End self-consistency iteration #     3       :  max(cpu_time)    wall_clock(cpu1)
  | Time for this iteration                    :        0.612 s           0.612 s
  | Charge density update                      :        0.088 s           0.085 s
  | Density mixing                             :        0.008 s           0.008 s
  | Hartree multipole update                   :        0.068 s           0.067 s
  | Hartree multipole summation                :        0.264 s           0.262 s
  | Integration                                :        0.176 s           0.176 s
  | Fock matrix evaluation                     :        0.012 s           0.012 s
  | Solution of K.-S. eqns.                    :        0.004 s           0.002 s
  | Total energy evaluation                    :        0.000 s           0.000 s
------------------------------------------------------------

------------------------------------------------------------
          Begin self-consistency iteration #    4

  Date     :  20140812, Time     :  112851.573
------------------------------------------------------------
  Evaluating new KS density.
  Integration grid: deviation in total charge (<rho> - N_e) =   1.776357E-15
  Pulay mixing of updated and previous charge densities.

  Evaluating partitioned Hartree potential by multipole expansion.
  | Analytical far-field extrapolation by fixed multipoles:
  | Hartree multipole sum: apparent total charge =  -0.127185E-06
  Summing up the Hartree potential.
  Time summed over all CPUs for potential: real work        1.050 s, elapsed        1.062 s
  | RMS charge density error from multipole expansion :   0.946326E-05

  Integrating Hamiltonian matrix: batch-based integration.
  Time summed over all CPUs for integration: real work        0.672 s, elapsed        0.679 s
  Evaluating the exchange matrix ... 

  Updating Kohn-Sham eigenvalues, eigenvectors, occupation numbers, and Fermi level.
  Solving generalized eigenproblem
  Updating Kohn-Sham eigenvalues and eigenfunctions.
  Solving real generalised eigenvalue problem by standard LAPACK (fast)
  Determining occupation numbers for Kohn-Sham eigenstates.
  | Chemical potential (Fermi level) in eV                 : -.61858349E+01
  | Error in electron count due to remaining E_F inaccuracy: 0.00000000E+00
  | Maximum occupation number of highest empty state:  0.00E+00

  Highest occupied state (VBM) at     -7.21787103 eV
  | Occupation number:      2.00000000

  Lowest unoccupied state (CBM) at    -5.15379877 eV
  | Occupation number:      0.00000000

  Overall HOMO-LUMO gap:      2.06407225 eV.

  Total energy components:
  | Sum of eigenvalues            :          -0.53050377 Ha         -14.43574205 eV
  | XC energy correction          :           0.29844483 Ha           8.12109708 eV
  | XC potential correction       :           0.00000000 Ha           0.00000000 eV
  | Free-atom electrostatic energy:          -0.56553593 Ha         -15.38901556 eV
  | Hartree energy correction     :           0.04492728 Ha           1.22253337 eV
  | Entropy correction            :           0.00000000 Ha           0.00000000 eV
  | ---------------------------
  | Total energy                  :          -0.75266759 Ha         -20.48112716 eV
  | Total energy, T -> 0          :          -0.75266759 Ha         -20.48112716 eV  <-- do not rely on this value for anything but (periodic) metals
  | Electronic free energy        :          -0.75266759 Ha         -20.48112716 eV

  Derived energy quantities:
  | Kinetic energy                :           0.73433445 Ha          19.98225702 eV
  | Electrostatic energy          :          -1.18855720 Ha         -32.34228710 eV
  | Energy correction for multipole
  | error in Hartree potential    :           0.00000007 Ha           0.00000202 eV
  | Sum of eigenvalues per atom                           :          -7.21787103 eV
  | Total energy (T->0) per atom                          :         -10.24056358 eV  <-- do not rely on this value for anything but (periodic) metals
  | Electronic free energy per atom                       :         -10.24056358 eV

  Self-consistency convergence accuracy:
  | Change of charge density      : 0.2965E-01
  | Change of sum of eigenvalues  : -.6380E+00 eV
  | Change of total energy        : 0.3254E+00 eV

  End self-consistency iteration #     4       :  max(cpu_time)    wall_clock(cpu1)
  | Time for this iteration                    :        0.620 s           0.620 s
  | Charge density update                      :        0.088 s           0.088 s
  | Density mixing                             :        0.012 s           0.012 s
  | Hartree multipole update                   :        0.072 s           0.069 s
  | Hartree multipole summation                :        0.268 s           0.267 s
  | Integration                                :        0.172 s           0.170 s
  | Fock matrix evaluation                     :        0.012 s           0.012 s
  | Solution of K.-S. eqns.                    :        0.004 s           0.001 s
  | Total energy evaluation                    :        0.000 s           0.000 s
------------------------------------------------------------

------------------------------------------------------------
          Begin self-consistency iteration #    5

  Date     :  20140812, Time     :  112852.193
------------------------------------------------------------
  Evaluating new KS density.
  Integration grid: deviation in total charge (<rho> - N_e) =   2.664535E-15
  Pulay mixing of updated and previous charge densities.

  Evaluating partitioned Hartree potential by multipole expansion.
  | Analytical far-field extrapolation by fixed multipoles:
  | Hartree multipole sum: apparent total charge =  -0.128998E-06
  Summing up the Hartree potential.
  Time summed over all CPUs for potential: real work        1.057 s, elapsed        1.069 s
  | RMS charge density error from multipole expansion :   0.978474E-05

  Integrating Hamiltonian matrix: batch-based integration.
  Time summed over all CPUs for integration: real work        0.671 s, elapsed        0.685 s
  Evaluating the exchange matrix ... 

  Updating Kohn-Sham eigenvalues, eigenvectors, occupation numbers, and Fermi level.
  Solving generalized eigenproblem
  Updating Kohn-Sham eigenvalues and eigenfunctions.
  Solving real generalised eigenvalue problem by standard LAPACK (fast)
  Determining occupation numbers for Kohn-Sham eigenstates.
  | Chemical potential (Fermi level) in eV                 : -.61968151E+01
  | Error in electron count due to remaining E_F inaccuracy: 0.00000000E+00
  | Maximum occupation number of highest empty state:  0.00E+00

  Highest occupied state (VBM) at     -7.22896267 eV
  | Occupation number:      2.00000000

  Lowest unoccupied state (CBM) at    -5.16466746 eV
  | Occupation number:      0.00000000

  Overall HOMO-LUMO gap:      2.06429521 eV.

  Total energy components:
  | Sum of eigenvalues            :          -0.53131899 Ha         -14.45792534 eV
  | XC energy correction          :           0.29625256 Ha           8.06144233 eV
  | XC potential correction       :           0.00000000 Ha           0.00000000 eV
  | Free-atom electrostatic energy:          -0.56553593 Ha         -15.38901556 eV
  | Hartree energy correction     :           0.04651018 Ha           1.26560644 eV
  | Entropy correction            :           0.00000000 Ha           0.00000000 eV
  | ---------------------------
  | Total energy                  :          -0.75409218 Ha         -20.51989214 eV
  | Total energy, T -> 0          :          -0.75409218 Ha         -20.51989214 eV  <-- do not rely on this value for anything but (periodic) metals
  | Electronic free energy        :          -0.75409218 Ha         -20.51989214 eV

  Derived energy quantities:
  | Kinetic energy                :           0.72738225 Ha          19.79307803 eV
  | Electrostatic energy          :          -1.18522186 Ha         -32.25152783 eV
  | Energy correction for multipole
  | error in Hartree potential    :           0.00000008 Ha           0.00000211 eV
  | Sum of eigenvalues per atom                           :          -7.22896267 eV
  | Total energy (T->0) per atom                          :         -10.25994607 eV  <-- do not rely on this value for anything but (periodic) metals
  | Electronic free energy per atom                       :         -10.25994607 eV

  Self-consistency convergence accuracy:
  | Change of charge density      : 0.3829E-02
  | Change of sum of eigenvalues  : -.2218E-01 eV
  | Change of total energy        : -.3876E-01 eV

  End self-consistency iteration #     5       :  max(cpu_time)    wall_clock(cpu1)
  | Time for this iteration                    :        0.620 s           0.620 s
  | Charge density update                      :        0.084 s           0.084 s
  | Density mixing                             :        0.016 s           0.017 s
  | Hartree multipole update                   :        0.068 s           0.065 s
  | Hartree multipole summation                :        0.268 s           0.269 s
  | Integration                                :        0.172 s           0.171 s
  | Fock matrix evaluation                     :        0.016 s           0.012 s
  | Solution of K.-S. eqns.                    :        0.004 s           0.002 s
  | Total energy evaluation                    :        0.000 s           0.000 s
------------------------------------------------------------

------------------------------------------------------------
          Begin self-consistency iteration #    6

  Date     :  20140812, Time     :  112852.814
------------------------------------------------------------
  Evaluating new KS density.
  Integration grid: deviation in total charge (<rho> - N_e) =   0.000000E+00
  Pulay mixing of updated and previous charge densities.

  Evaluating partitioned Hartree potential by multipole expansion.
  | Analytical far-field extrapolation by fixed multipoles:
  | Hartree multipole sum: apparent total charge =  -0.133555E-06
  Summing up the Hartree potential.
  Time summed over all CPUs for potential: real work        1.040 s, elapsed        1.046 s
  | RMS charge density error from multipole expansion :   0.108253E-04

  Integrating Hamiltonian matrix: batch-based integration.
  Time summed over all CPUs for integration: real work        0.671 s, elapsed        0.695 s
  Evaluating the exchange matrix ... 

  Updating Kohn-Sham eigenvalues, eigenvectors, occupation numbers, and Fermi level.
  Solving generalized eigenproblem
  Updating Kohn-Sham eigenvalues and eigenfunctions.
  Solving real generalised eigenvalue problem by standard LAPACK (fast)
  Determining occupation numbers for Kohn-Sham eigenstates.
  | Chemical potential (Fermi level) in eV                 : -.62369968E+01
  | Error in electron count due to remaining E_F inaccuracy: 0.00000000E+00
  | Maximum occupation number of highest empty state:  0.00E+00

  Highest occupied state (VBM) at     -7.27006907 eV
  | Occupation number:      2.00000000

  Lowest unoccupied state (CBM) at    -5.20392451 eV
  | Occupation number:      0.00000000

  Overall HOMO-LUMO gap:      2.06614456 eV.

  Total energy components:
  | Sum of eigenvalues            :          -0.53434025 Ha         -14.54013813 eV
  | XC energy correction          :           0.29495318 Ha           8.02608440 eV
  | XC potential correction       :           0.00000000 Ha           0.00000000 eV
  | Free-atom electrostatic energy:          -0.56553593 Ha         -15.38901556 eV
  | Hartree energy correction     :           0.05202332 Ha           1.41562657 eV
  | Entropy correction            :           0.00000000 Ha           0.00000000 eV
  | ---------------------------
  | Total energy                  :          -0.75289968 Ha         -20.48744273 eV
  | Total energy, T -> 0          :          -0.75289968 Ha         -20.48744273 eV  <-- do not rely on this value for anything but (periodic) metals
  | Electronic free energy        :          -0.75289968 Ha         -20.48744273 eV

  Derived energy quantities:
  | Kinetic energy                :           0.71562398 Ha          19.47311919 eV
  | Electrostatic energy          :          -1.17357048 Ha         -31.93447753 eV
  | Energy correction for multipole
  | error in Hartree potential    :           0.00000009 Ha           0.00000242 eV
  | Sum of eigenvalues per atom                           :          -7.27006907 eV
  | Total energy (T->0) per atom                          :         -10.24372136 eV  <-- do not rely on this value for anything but (periodic) metals
  | Electronic free energy per atom                       :         -10.24372136 eV

  Self-consistency convergence accuracy:
  | Change of charge density      : 0.2871E-02
  | Change of sum of eigenvalues  : -.8221E-01 eV
  | Change of total energy        : 0.3245E-01 eV

  End self-consistency iteration #     6       :  max(cpu_time)    wall_clock(cpu1)
  | Time for this iteration                    :        0.620 s           0.622 s
  | Charge density update                      :        0.084 s           0.085 s
  | Density mixing                             :        0.020 s           0.020 s
  | Hartree multipole update                   :        0.068 s           0.066 s
  | Hartree multipole summation                :        0.260 s           0.263 s
  | Integration                                :        0.176 s           0.174 s
  | Fock matrix evaluation                     :        0.012 s           0.012 s
  | Solution of K.-S. eqns.                    :        0.000 s           0.001 s
  | Total energy evaluation                    :        0.000 s           0.001 s
------------------------------------------------------------

------------------------------------------------------------
          Begin self-consistency iteration #    7

  Date     :  20140812, Time     :  112853.436
------------------------------------------------------------
  Evaluating new KS density.
  Integration grid: deviation in total charge (<rho> - N_e) =  -2.220446E-16
  Pulay mixing of updated and previous charge densities.

  Evaluating partitioned Hartree potential by multipole expansion.
  | Analytical far-field extrapolation by fixed multipoles:
  | Hartree multipole sum: apparent total charge =  -0.132939E-06
  Summing up the Hartree potential.
  Time summed over all CPUs for potential: real work        1.040 s, elapsed        1.049 s
  | RMS charge density error from multipole expansion :   0.106849E-04

  Integrating Hamiltonian matrix: batch-based integration.
  Time summed over all CPUs for integration: real work        0.671 s, elapsed        0.695 s
  Evaluating the exchange matrix ... 

  Updating Kohn-Sham eigenvalues, eigenvectors, occupation numbers, and Fermi level.
  Solving generalized eigenproblem
  Updating Kohn-Sham eigenvalues and eigenfunctions.
  Solving real generalised eigenvalue problem by standard LAPACK (fast)
  Determining occupation numbers for Kohn-Sham eigenstates.
  | Chemical potential (Fermi level) in eV                 : -.62314438E+01
  | Error in electron count due to remaining E_F inaccuracy: 0.00000000E+00
  | Maximum occupation number of highest empty state:  0.00E+00

  Highest occupied state (VBM) at     -7.26435435 eV
  | Occupation number:      2.00000000

  Lowest unoccupied state (CBM) at    -5.19853321 eV
  | Occupation number:      0.00000000

  Overall HOMO-LUMO gap:      2.06582114 eV.

  Total energy components:
  | Sum of eigenvalues            :          -0.53392023 Ha         -14.52870871 eV
  | XC energy correction          :           0.29488942 Ha           8.02434927 eV
  | XC potential correction       :           0.00000000 Ha           0.00000000 eV
  | Free-atom electrostatic energy:          -0.56553593 Ha         -15.38901556 eV
  | Hartree energy correction     :           0.05128173 Ha           1.39544695 eV
  | Entropy correction            :           0.00000000 Ha           0.00000000 eV
  | ---------------------------
  | Total energy                  :          -0.75328501 Ha         -20.49792805 eV
  | Total energy, T -> 0          :          -0.75328501 Ha         -20.49792805 eV  <-- do not rely on this value for anything but (periodic) metals
  | Electronic free energy        :          -0.75328501 Ha         -20.49792805 eV

  Derived energy quantities:
  | Kinetic energy                :           0.71674164 Ha          19.50353245 eV
  | Electrostatic energy          :          -1.17513724 Ha         -31.97711123 eV
  | Energy correction for multipole
  | error in Hartree potential    :           0.00000009 Ha           0.00000238 eV
  | Sum of eigenvalues per atom                           :          -7.26435435 eV
  | Total energy (T->0) per atom                          :         -10.24896402 eV  <-- do not rely on this value for anything but (periodic) metals
  | Electronic free energy per atom                       :         -10.24896402 eV

  Self-consistency convergence accuracy:
  | Change of charge density      : 0.4380E-03
  | Change of sum of eigenvalues  : 0.1143E-01 eV
  | Change of total energy        : -.1049E-01 eV

  End self-consistency iteration #     7       :  max(cpu_time)    wall_clock(cpu1)
  | Time for this iteration                    :        0.632 s           0.633 s
  | Charge density update                      :        0.092 s           0.092 s
  | Density mixing                             :        0.024 s           0.023 s
  | Hartree multipole update                   :        0.068 s           0.066 s
  | Hartree multipole summation                :        0.264 s           0.264 s
  | Integration                                :        0.176 s           0.174 s
  | Fock matrix evaluation                     :        0.012 s           0.012 s
  | Solution of K.-S. eqns.                    :        0.000 s           0.001 s
  | Total energy evaluation                    :        0.000 s           0.001 s
------------------------------------------------------------

------------------------------------------------------------
          Begin self-consistency iteration #    8

  Date     :  20140812, Time     :  112854.069
------------------------------------------------------------
  Evaluating new KS density.
  Integration grid: deviation in total charge (<rho> - N_e) =  -3.330669E-15
  Pulay mixing of updated and previous charge densities.

  Evaluating partitioned Hartree potential by multipole expansion.
  | Analytical far-field extrapolation by fixed multipoles:
  | Hartree multipole sum: apparent total charge =  -0.132943E-06
  Summing up the Hartree potential.
  Time summed over all CPUs for potential: real work        1.048 s, elapsed        1.062 s
  | RMS charge density error from multipole expansion :   0.106857E-04

  Integrating Hamiltonian matrix: batch-based integration.
  Time summed over all CPUs for integration: real work        0.689 s, elapsed        0.708 s
  Evaluating the exchange matrix ... 

  Updating Kohn-Sham eigenvalues, eigenvectors, occupation numbers, and Fermi level.
  Solving generalized eigenproblem
  Updating Kohn-Sham eigenvalues and eigenfunctions.
  Solving real generalised eigenvalue problem by standard LAPACK (fast)
  Determining occupation numbers for Kohn-Sham eigenstates.
  | Chemical potential (Fermi level) in eV                 : -.62314933E+01
  | Error in electron count due to remaining E_F inaccuracy: 0.00000000E+00
  | Maximum occupation number of highest empty state:  0.00E+00

  Highest occupied state (VBM) at     -7.26441128 eV
  | Occupation number:      2.00000000

  Lowest unoccupied state (CBM) at    -5.19857527 eV
  | Occupation number:      0.00000000

  Overall HOMO-LUMO gap:      2.06583602 eV.

  Total energy components:
  | Sum of eigenvalues            :          -0.53392442 Ha         -14.52882256 eV
  | XC energy correction          :           0.29492169 Ha           8.02522764 eV
  | XC potential correction       :           0.00000000 Ha           0.00000000 eV
  | Free-atom electrostatic energy:          -0.56553593 Ha         -15.38901556 eV
  | Hartree energy correction     :           0.05128545 Ha           1.39554804 eV
  | Entropy correction            :           0.00000000 Ha           0.00000000 eV
  | ---------------------------
  | Total energy                  :          -0.75325320 Ha         -20.49706245 eV
  | Total energy, T -> 0          :          -0.75325320 Ha         -20.49706245 eV  <-- do not rely on this value for anything but (periodic) metals
  | Electronic free energy        :          -0.75325320 Ha         -20.49706245 eV

  Derived energy quantities:
  | Kinetic energy                :           0.71680120 Ha          19.50515308 eV
  | Electrostatic energy          :          -1.17513271 Ha         -31.97698790 eV
  | Energy correction for multipole
  | error in Hartree potential    :           0.00000009 Ha           0.00000238 eV
  | Sum of eigenvalues per atom                           :          -7.26441128 eV
  | Total energy (T->0) per atom                          :         -10.24853123 eV  <-- do not rely on this value for anything but (periodic) metals
  | Electronic free energy per atom                       :         -10.24853123 eV

  Self-consistency convergence accuracy:
  | Change of charge density      : 0.3270E-05
  | Change of sum of eigenvalues  : -.1139E-03 eV
  | Change of total energy        : 0.8656E-03 eV

  End self-consistency iteration #     8       :  max(cpu_time)    wall_clock(cpu1)
  | Time for this iteration                    :        0.640 s           0.638 s
  | Charge density update                      :        0.088 s           0.086 s
  | Density mixing                             :        0.028 s           0.029 s
  | Hartree multipole update                   :        0.068 s           0.065 s
  | Hartree multipole summation                :        0.268 s           0.267 s
  | Integration                                :        0.176 s           0.177 s
  | Fock matrix evaluation                     :        0.012 s           0.012 s
  | Solution of K.-S. eqns.                    :        0.004 s           0.002 s
  | Total energy evaluation                    :        0.000 s           0.000 s
------------------------------------------------------------

------------------------------------------------------------
          Begin self-consistency iteration #    9

  Date     :  20140812, Time     :  112854.708
------------------------------------------------------------
  Evaluating new KS density.
  Integration grid: deviation in total charge (<rho> - N_e) =   4.440892E-15
  Pulay mixing of updated and previous charge densities.

  Evaluating partitioned Hartree potential by multipole expansion.
  | Analytical far-field extrapolation by fixed multipoles:
  | Hartree multipole sum: apparent total charge =  -0.132948E-06
  Summing up the Hartree potential.
  Time summed over all CPUs for potential: real work        1.059 s, elapsed        1.075 s
  | RMS charge density error from multipole expansion :   0.106867E-04

  Integrating Hamiltonian matrix: batch-based integration.
  Time summed over all CPUs for integration: real work        0.670 s, elapsed        0.679 s
  Evaluating the exchange matrix ... 

  Updating Kohn-Sham eigenvalues, eigenvectors, occupation numbers, and Fermi level.
  Solving generalized eigenproblem
  Updating Kohn-Sham eigenvalues and eigenfunctions.
  Solving real generalised eigenvalue problem by standard LAPACK (fast)
  Determining occupation numbers for Kohn-Sham eigenstates.
  | Chemical potential (Fermi level) in eV                 : -.62315404E+01
  | Error in electron count due to remaining E_F inaccuracy: 0.00000000E+00
  | Maximum occupation number of highest empty state:  0.00E+00

  Highest occupied state (VBM) at     -7.26446333 eV
  | Occupation number:      2.00000000

  Lowest unoccupied state (CBM) at    -5.19861743 eV
  | Occupation number:      0.00000000

  Overall HOMO-LUMO gap:      2.06584591 eV.

  Total energy components:
  | Sum of eigenvalues            :          -0.53392824 Ha         -14.52892667 eV
  | XC energy correction          :           0.29492087 Ha           8.02520520 eV
  | XC potential correction       :           0.00000000 Ha           0.00000000 eV
  | Free-atom electrostatic energy:          -0.56553593 Ha         -15.38901556 eV
  | Hartree energy correction     :           0.05129001 Ha           1.39567227 eV
  | Entropy correction            :           0.00000000 Ha           0.00000000 eV
  | ---------------------------
  | Total energy                  :          -0.75325328 Ha         -20.49706475 eV
  | Total energy, T -> 0          :          -0.75325328 Ha         -20.49706475 eV  <-- do not rely on this value for anything but (periodic) metals
  | Electronic free energy        :          -0.75325328 Ha         -20.49706475 eV

  Derived energy quantities:
  | Kinetic energy                :           0.71679248 Ha          19.50491583 eV
  | Electrostatic energy          :          -1.17512490 Ha         -31.97677538 eV
  | Energy correction for multipole
  | error in Hartree potential    :           0.00000009 Ha           0.00000238 eV
  | Sum of eigenvalues per atom                           :          -7.26446333 eV
  | Total energy (T->0) per atom                          :         -10.24853238 eV  <-- do not rely on this value for anything but (periodic) metals
  | Electronic free energy per atom                       :         -10.24853238 eV

  Self-consistency convergence accuracy:
  | Change of charge density      : 0.2430E-05
  | Change of sum of eigenvalues  : -.1041E-03 eV
  | Change of total energy        : -.2302E-05 eV

  End self-consistency iteration #     9       :  max(cpu_time)    wall_clock(cpu1)
  | Time for this iteration                    :        0.644 s           0.642 s
  | Charge density update                      :        0.092 s           0.089 s
  | Density mixing                             :        0.032 s           0.032 s
  | Hartree multipole update                   :        0.068 s           0.066 s
  | Hartree multipole summation                :        0.272 s           0.270 s
  | Integration                                :        0.172 s           0.170 s
  | Fock matrix evaluation                     :        0.016 s           0.012 s
  | Solution of K.-S. eqns.                    :        0.004 s           0.002 s
  | Total energy evaluation                    :        0.000 s           0.000 s
------------------------------------------------------------

------------------------------------------------------------
          Begin self-consistency iteration #   10

  Date     :  20140812, Time     :  112855.350
------------------------------------------------------------
  Evaluating new KS density.
  Integration grid: deviation in total charge (<rho> - N_e) =  -8.881784E-16
  Pulay mixing of updated and previous charge densities.

  Evaluating partitioned Hartree potential by multipole expansion.
  | Analytical far-field extrapolation by fixed multipoles:
  | Hartree multipole sum: apparent total charge =  -0.132949E-06
  Summing up the Hartree potential.
  Time summed over all CPUs for potential: real work        1.042 s, elapsed        1.050 s
  | RMS charge density error from multipole expansion :   0.106869E-04

  Integrating Hamiltonian matrix: batch-based integration.
  Time summed over all CPUs for integration: real work        0.703 s, elapsed        0.803 s
  Evaluating the exchange matrix ... 

  Updating Kohn-Sham eigenvalues, eigenvectors, occupation numbers, and Fermi level.
  Solving generalized eigenproblem
  Updating Kohn-Sham eigenvalues and eigenfunctions.
  Solving real generalised eigenvalue problem by standard LAPACK (fast)
  Determining occupation numbers for Kohn-Sham eigenstates.
  | Chemical potential (Fermi level) in eV                 : -.62315528E+01
  | Error in electron count due to remaining E_F inaccuracy: 0.00000000E+00
  | Maximum occupation number of highest empty state:  0.00E+00

  Highest occupied state (VBM) at     -7.26447724 eV
  | Occupation number:      2.00000000

  Lowest unoccupied state (CBM) at    -5.19862844 eV
  | Occupation number:      0.00000000

  Overall HOMO-LUMO gap:      2.06584879 eV.

  Total energy components:
  | Sum of eigenvalues            :          -0.53392926 Ha         -14.52895447 eV
  | XC energy correction          :           0.29492044 Ha           8.02519354 eV
  | XC potential correction       :           0.00000000 Ha           0.00000000 eV
  | Free-atom electrostatic energy:          -0.56553593 Ha         -15.38901556 eV
  | Hartree energy correction     :           0.05129115 Ha           1.39570329 eV
  | Entropy correction            :           0.00000000 Ha           0.00000000 eV
  | ---------------------------
  | Total energy                  :          -0.75325360 Ha         -20.49707321 eV
  | Total energy, T -> 0          :          -0.75325360 Ha         -20.49707321 eV  <-- do not rely on this value for anything but (periodic) metals
  | Electronic free energy        :          -0.75325360 Ha         -20.49707321 eV

  Derived energy quantities:
  | Kinetic energy                :           0.71678947 Ha          19.50483389 eV
  | Electrostatic energy          :          -1.17512262 Ha         -31.97671357 eV
  | Energy correction for multipole
  | error in Hartree potential    :           0.00000009 Ha           0.00000238 eV
  | Sum of eigenvalues per atom                           :          -7.26447724 eV
  | Total energy (T->0) per atom                          :         -10.24853661 eV  <-- do not rely on this value for anything but (periodic) metals
  | Electronic free energy per atom                       :         -10.24853661 eV

  Self-consistency convergence accuracy:
  | Change of charge density      : 0.5255E-06
  | Change of sum of eigenvalues  : -.2781E-04 eV
  | Change of total energy        : -.8457E-05 eV

  End self-consistency iteration #    10       :  max(cpu_time)    wall_clock(cpu1)
  | Time for this iteration                    :        0.676 s           0.674 s
  | Charge density update                      :        0.088 s           0.087 s
  | Density mixing                             :        0.040 s           0.039 s
  | Hartree multipole update                   :        0.068 s           0.066 s
  | Hartree multipole summation                :        0.264 s           0.263 s
  | Integration                                :        0.200 s           0.201 s
  | Fock matrix evaluation                     :        0.016 s           0.015 s
  | Solution of K.-S. eqns.                    :        0.004 s           0.002 s
  | Total energy evaluation                    :        0.000 s           0.000 s
------------------------------------------------------------

------------------------------------------------------------
          Begin self-consistency iteration #   11

  Date     :  20140812, Time     :  112856.025
------------------------------------------------------------
  Evaluating new KS density.
  Integration grid: deviation in total charge (<rho> - N_e) =  -1.221245E-14
  Pulay mixing of updated and previous charge densities.

  Evaluating partitioned Hartree potential by multipole expansion.
  | Analytical far-field extrapolation by fixed multipoles:
[...]

  Integrating Hamiltonian matrix: batch-based integration.
  Time summed over all CPUs for integration: real work        0.672 s, elapsed        0.696 s
  Evaluating the exchange matrix ... 

  Updating Kohn-Sham eigenvalues, eigenvectors, occupation numbers, and Fermi level.
  Solving generalized eigenproblem
  Updating Kohn-Sham eigenvalues and eigenfunctions.
  Solving real generalised eigenvalue problem by standard LAPACK (fast)
  Determining occupation numbers for Kohn-Sham eigenstates.
  | Chemical potential (Fermi level) in eV                 : -.62315554E+01
  | Error in electron count due to remaining E_F inaccuracy: 0.00000000E+00
  | Maximum occupation number of highest empty state:  0.00E+00

  Highest occupied state (VBM) at     -7.26448036 eV
  | Occupation number:      2.00000000

  Lowest unoccupied state (CBM) at    -5.19863044 eV
  | Occupation number:      0.00000000

  Overall HOMO-LUMO gap:      2.06584993 eV.

  Total energy components:
  | Sum of eigenvalues            :          -0.53392949 Ha         -14.52896073 eV
  | XC energy correction          :           0.29492038 Ha           8.02519193 eV
  | XC potential correction       :           0.00000000 Ha           0.00000000 eV
  | Free-atom electrostatic energy:          -0.56553593 Ha         -15.38901556 eV
  | Hartree energy correction     :           0.05129126 Ha           1.39570620 eV
  | Entropy correction            :           0.00000000 Ha           0.00000000 eV
  | ---------------------------
  | Total energy                  :          -0.75325378 Ha         -20.49707816 eV
  | Total energy, T -> 0          :          -0.75325378 Ha         -20.49707816 eV  <-- do not rely on this value for anything but (periodic) metals
  | Electronic free energy        :          -0.75325378 Ha         -20.49707816 eV

  Derived energy quantities:
  | Kinetic energy                :           0.71678924 Ha          19.50482761 eV
  | Electrostatic energy          :          -1.17512263 Ha         -31.97671384 eV
  | Energy correction for multipole
  | error in Hartree potential    :           0.00000009 Ha           0.00000238 eV
  | Sum of eigenvalues per atom                           :          -7.26448036 eV
  | Total energy (T->0) per atom                          :         -10.24853908 eV  <-- do not rely on this value for anything but (periodic) metals
  | Electronic free energy per atom                       :         -10.24853908 eV

  Self-consistency convergence accuracy:
  | Change of charge density      : 0.1022E-07
  | Change of sum of eigenvalues  : -.5483E-06 eV
  | Change of total energy        : -.7209E-06 eV

  Writing Kohn-Sham eigenvalues.

  State    Occupation    Eigenvalue [Ha]    Eigenvalue [eV]
      1       2.00000          -0.266965           -7.26448
      2       0.00000          -0.191046           -5.19863
      3       0.00000           0.183570            4.99520
      4       0.00000           0.192385            5.23506
      5       0.00000           0.387243           10.53742
      6       0.00000           0.387704           10.54995
      7       0.00000           0.387704           10.54995
      8       0.00000           0.388299           10.56615
      9       0.00000           0.388299           10.56615
     10       0.00000           0.388816           10.58021
     11       0.00000           0.961887           26.17426
     12       0.00000           0.974710           26.52322
     13       0.00000           1.207255           32.85108
     14       0.00000           1.207259           32.85119
     15       0.00000           1.207259           32.85119
     16       0.00000           1.207264           32.85134
     17       0.00000           1.207264           32.85134
     18       0.00000           1.207268           32.85145
     19       0.00000           1.207268           32.85145
     20       0.00000           1.207306           32.85247
     21       0.00000           1.207306           32.85247
     22       0.00000           1.207335           32.85324
     23       0.00000           1.832888           49.87542
     24       0.00000           1.833233           49.88482
     25       0.00000           1.833233           49.88482
     26       0.00000           1.833276           49.88599
     27       0.00000           1.833276           49.88599
     28       0.00000           1.833693           49.89733
     29       0.00000           3.480639           94.71302
     30       0.00000           3.480639           94.71302
     31       0.00000           3.480640           94.71302
     32       0.00000           3.480640           94.71302
     33       0.00000           3.480660           94.71357
     34       0.00000           3.480660           94.71357
     35       0.00000           3.480660           94.71358
     36       0.00000           3.480660           94.71358
     37       0.00000           3.480672           94.71389
     38       0.00000           3.480672           94.71389
     39       0.00000           3.480673           94.71394
     40       0.00000           3.480673           94.71394
     41       0.00000           3.480676           94.71400
     42       0.00000           3.480678           94.71407
     43       0.00000           3.836653          104.40065
     44       0.00000           3.858764          105.00232
     45       0.00000           5.325698          144.91961
     46       0.00000           5.325700          144.91966
     47       0.00000           5.325700          144.91966
     48       0.00000           5.325701          144.91970
     49       0.00000           5.325701          144.91970
     50       0.00000           5.325714          144.92004
     51       0.00000           5.325714          144.92004
     52       0.00000           5.325724          144.92033
     53       0.00000           5.325724          144.92033
     54       0.00000           5.325757          144.92122
     55       0.00000           8.572221          233.26199
     56       0.00000           8.573130          233.28674
     57       0.00000           8.573130          233.28674
     58       0.00000           8.573242          233.28980
     59       0.00000           8.573242          233.28980
     60       0.00000           8.574240          233.31695
     61       0.00000          21.819148          593.72922
     62       0.00000          21.894028          595.76681

  Highest occupied state (VBM) at     -7.26448036 eV
  | Occupation number:      2.00000000

  Lowest unoccupied state (CBM) at    -5.19863044 eV
  | Occupation number:      0.00000000

  Overall HOMO-LUMO gap:      2.06584993 eV.

  Self-consistency cycle converged.

  End self-consistency iteration #    12       :  max(cpu_time)    wall_clock(cpu1)
  | Time for this iteration                    :        0.648 s           0.647 s
  | Charge density update                      :        0.088 s           0.085 s
  | Density mixing                             :        0.040 s           0.040 s
  | Hartree multipole update                   :        0.068 s           0.066 s
  | Hartree multipole summation                :        0.268 s           0.266 s
  | Integration                                :        0.176 s           0.174 s
  | Fock matrix evaluation                     :        0.012 s           0.012 s
  | Solution of K.-S. eqns.                    :        0.004 s           0.001 s
  | Total energy evaluation                    :        0.000 s           0.000 s
------------------------------------------------------------

  Energy and forces in a compact form:
  | Total energy uncorrected      :         -0.204970781598624E+02 eV
  | Total energy corrected        :         -0.204970781598624E+02 eV  <-- do not rely on this value for anything but (periodic) metals
  | Electronic free energy        :         -0.204970781598624E+02 eV

  ------------------------------------ 
  Start decomposition of the XC Energy 
  ------------------------------------ 
  Hartree-Fock part   :          0.294920383 Ha              8.025191929 eV
  ------------------------------------ 
  X Energy            :          0.294920383 Ha              8.025191929 eV
  C Energy GGA        :          0.000000000 Ha              0.000000000 eV
  Total XC Energy     :          0.294920383 Ha              8.025191929 eV
  LDA X and C from self-consistent density 
  X Energy LDA        :         -0.351489704 Ha             -9.564521487 eV
  C Energy LDA        :         -0.075255489 Ha             -2.047806052 eV
  ------------------------------------ 
  End decomposition of the XC Energy 
  ------------------------------------ 
---------------------------------------------
---------------------------------------------
 | MP2 calculation starts ...
---------------------------------------------

  | Note : Resolution of identity applied 
  | Note : Non spin-polarized system 
---------------------------------------------
  | Homo level                                        1
  | Lumo level                                        2
  | Total Number of states                           62
  | Number of k-points                                1
  | Homo-Lumo Gap                            0.07591859 Ha          2.06584993 eV
---------------------------------------------
  The ovlp_3KS matrix takes another      0 MiB x      4 procs =       0.000 GiB.


---------------------------------------------
| Sum of correlation terms 
---------------------------------------------
  | Pair state     1                    :         -9.61447548 eV         -9.61447548 eV

---------------------------------------------
| Correlation energy spectrum 
---------------------------------------------
  |     2    :         -0.19104616        -0.32690660
  |     3    :          0.18357041        -0.00153591
  |     4    :          0.19238484        -0.00921770
  |     5    :          0.38724303        -0.00100355
  |     6    :          0.38770352        -0.00098637
  |     7    :          0.38770352        -0.00098637
  |     8    :          0.38829872        -0.00095691
  |     9    :          0.38829872        -0.00095691
  |    10    :          0.38881558        -0.00094517
  |    11    :          0.96188654        -0.00135048
  |    12    :          0.97471032        -0.00303320
  |    13    :          1.20725510        -0.00010256
  |    14    :          1.20725889        -0.00010193
  |    15    :          1.20725891        -0.00010193
  |    16    :          1.20726442        -0.00010234
  |    17    :          1.20726442        -0.00010234
  |    18    :          1.20726842        -0.00010182
  |    19    :          1.20726844        -0.00010182
  |    20    :          1.20730616        -0.00010188
  |    21    :          1.20730616        -0.00010188
  |    22    :          1.20733456        -0.00010187
  |    23    :          1.83288800        -0.00047311
  |    24    :          1.83323342        -0.00047272
  |    25    :          1.83323342        -0.00047272
  |    26    :          1.83327628        -0.00047298
  |    27    :          1.83327628        -0.00047298
  |    28    :          1.83369329        -0.00047350
  |    29    :          3.48063944        -0.00002056
  |    30    :          3.48063944        -0.00002056
  |    31    :          3.48063954        -0.00002056
  |    32    :          3.48063954        -0.00002056
  |    33    :          3.48065957        -0.00002058
  |    34    :          3.48065963        -0.00002058
  |    35    :          3.48066019        -0.00002058
  |    36    :          3.48066025        -0.00002058
  |    37    :          3.48067163        -0.00002060
  |    38    :          3.48067163        -0.00002060
  |    39    :          3.48067329        -0.00002060
  |    40    :          3.48067329        -0.00002060
  |    41    :          3.48067560        -0.00002061
  |    42    :          3.48067814        -0.00002060
  |    43    :          3.83665347        -0.00027425
  |    44    :          3.85876430        -0.00033058
  |    45    :          5.32569766        -0.00003894
  |    46    :          5.32569969        -0.00003892
  |    47    :          5.32569972        -0.00003892
  |    48    :          5.32570093        -0.00003892
  |    49    :          5.32570097        -0.00003892
  |    50    :          5.32571352        -0.00003894
  |    51    :          5.32571352        -0.00003894
  |    52    :          5.32572407        -0.00003895
  |    53    :          5.32572407        -0.00003895
  |    54    :          5.32575703        -0.00003896
  |    55    :          8.57222051        -0.00004781
  |    56    :          8.57313004        -0.00004779
  |    57    :          8.57313004        -0.00004779
  |    58    :          8.57324243        -0.00004773
  |    59    :          8.57324243        -0.00004773
  |    60    :          8.57424028        -0.00004769
  |    61    :         21.81914766        -0.00000952
  |    62    :         21.89402780        -0.00000948
---------------------------------------------
 
 
 
          ---------------------------------------------
          | MP2 calculation comes to finish ...  
 
          ---------------------------------------------
          | Total time for calculating MP2 correction              :        0.000 s

          ---------------------------------------------

---------------------------------------------
  | HF Energy                      :         -0.75325378 Ha        -20.49707816 eV
  | MP2 correction                 :         -0.35332548 Ha         -9.61447548 eV
---------------------------------------------
  | Total Energy + MP2 correction  :         -1.10657926 Ha        -30.11155364 eV
---------------------------------------------

------------------------------------------------------------------------------
  Final output of selected total energy values:

  The following output summarizes some interesting total energy values
  at the end of a run (AFTER all relaxation, molecular dynamics, etc.).

  | Total energy of the DFT / Hartree-Fock s.c.f. calculation      :            -20.497078160 eV
  | Final zero-broadening corrected energy (caution - metals only) :            -20.497078160 eV
  | Total energy after the post-s.c.f. correlation calculation     :            -30.111553643 eV
  | For reference only, the value of 1 Hartree used in FHI-aims is :             27.211384500 eV

  Before relying on these values, please be sure to understand exactly which
  total energy value is referred to by a given number. Different objects may
  all carry the same name 'total energy'. Definitions:

  Total energy of the DFT / Hartree-Fock s.c.f. calculation:
  | Note that this energy does not include ANY quantities calculated after the
  | s.c.f. cycle, in particular not ANY RPA, MP2, etc. many-body perturbation terms.

  Final zero-broadening corrected energy:
  | For metallic systems only, a broadening of the occupation numbers at the Fermi
  | level can be extrapolated back to zero broadening by an electron-gas inspired
  | formula. For all systems that are not real metals, this value can be
  | meaningless and should be avoided.

  Total energy of the post-s.c.f. correlation calculation        :
  | The actual meaning of this energy depends on the setting for the 'total_energy_method'
  | keyword (MP2, RPA, rPT2, etc). If not sure, compare to the results listed above.

------------------------------------------------------------------------------

  Methods described in the following list of references were used in this FHI-aims run.
  If you publish the results, please make sure to cite these reference if they apply.
  FHI-aims is an academic code, and for our developers (often, Ph.D. students
  and postdocs), scientific credit in the community is essential.
  Thank you for helping us!

  For any use of FHI-aims, please cite:

    Volker Blum, Ralf Gehrke, Felix Hanke, Paula Havu, Ville Havu,
    Xinguo Ren, Karsten Reuter, and Matthias Scheffler,
    "Ab initio molecular simulations with numeric atom-centered orbitals"
    Computer Physics Communications 180, 2175-2196 (2009).
    http://dx.doi.org/10.1016/j.cpc.2009.06.022

  For Hartree-Fock, hybrid functionals, or many-body perturbation theory used in your run, please cite:

    Xinguo Ren, Patrick Rinke, Volker Blum, Juergen Wieferink, Alex Tkatchenko,
    Andrea Sanfilippo, Karsten Reuter, and Matthias Scheffler,
    "Resolution-of-identity approach to Hartree-Fock, hybrid density functionals,
     RPA, MP2, and GW with numeric atom-centered orbital basis functions"
    New Journal of Physics 14, 053020 (2012).
    http://dx.doi.org/10.1088/1367-2630/14/5/053020

  For the NAO-VCC-nZ basis sets used in this calculation, please cite:

    Igor Ying Zhang, Xinguo Ren, Patrick Rinke, Volker Blum, and Matthias Scheffler,
    "Numeric atom-centered-orbital basis sets with valence-correlation consistency from H to Ar"
    New Journal of Physics 15, 123033 (2013).
    http://dx.doi.org/10.1088/1367-2630/15/12/123033

  For the real-space grid partitioning and parallelization used in this calculation, please cite:

    Ville Havu, Volker Blum, Paula Havu, and Matthias Scheffler,
    "Efficient O(N) integration for all-electron electronic
    structure calculation using numerically tabulated basis functions"
    Journal of Computational Physics 228, 8367-8379 (2009).
    http://dx.doi.org/10.1016/j.jcp.2009.08.008

  Of course, there are many other important community references, e.g., those cited in the
  above references. Our list is limited to references that describe implementations in the FHI-aims
  code. The reason is purely practical (length of this list) - please credit others as well.

------------------------------------------------------------
          Leaving FHI-aims.
          Date     :  20140812, Time     :  112857.387

          Computational steps:
          | Number of self-consistency cycles          :           12

          Detailed time accounting                     :  max(cpu_time)    wall_clock(cpu1)
          | Total time                                 :       23.093 s          23.130 s
          | Preparation time                           :        0.200 s           0.221 s
          | Grid partitioning                          :        0.280 s           0.277 s
          | Preloading free-atom quantities on grid    :        0.068 s           0.066 s
          | Free-atom superposition energy             :        0.036 s           0.035 s
          | Total time for integrations                :        2.416 s           2.404 s
          | Product basis setup: Total time            :        0.000 s           0.000 s
          | Product basis: | 3-center integrations     :       14.009 s          14.017 s
          | Product basis: | 2-center integrations     :        0.256 s           0.254 s
          | Product basis: | 2-center linear algebra   :        0.088 s           0.089 s
          | Product basis: | 3-center x 2-center       :        0.024 s           0.023 s
          | Total time evaluating exchange matrix      :        0.160 s           0.147 s
          | Transforming ovlp_3fn to ovlp_3KS          :        0.012 s           0.010 s
          | Total time for solution of K.-S. equations :        0.044 s           0.025 s
          | Total time for density update              :        1.092 s           1.080 s
          | Total time for mixing                      :        0.276 s           0.271 s
          | Total time for Hartree multipole update    :        0.820 s           0.798 s
          | Total time for Hartree multipole sum       :        3.196 s           3.184 s
          | Total time for total energy evaluation     :        0.000 s           0.003 s

          Have a nice day.
------------------------------------------------------------
