  MPI-parallelism will be employed.
------------------------------------------------------------
          Invoking FHI-aims ...
          Version 030113
          Git rev. (modified): f71f3b8 Merge branch master of fhiaims.rzberlin.mp[...]
          Compiled on 2013/04/24 at 20:31:34 on host theobook58.

          When using FHI-aims, please cite the following reference:

          Volker Blum, Ralf Gehrke, Felix Hanke, Paula Havu,
          Ville Havu, Xinguo Ren, Karsten Reuter, and Matthias Scheffler,
          'Ab Initio Molecular Simulations with Numeric Atom-Centered Orbitals: FHI-aims',
          Computer Physics Communications 180, 2175-2196 (2009)

          For any questions about FHI-aims, please visit the aimsclub website
          with its forums and wiki. Contributions to both the forums and the
          wiki are warmly encouraged - they are for you, and everyone is welcome there.

------------------------------------------------------------

  Date     :  20130425, Time     :  105615.030
  Time zero on CPU 1             :   0.160000000000000E-01  s.
  Internal wall clock time zero  :           136119375.030  s.

  Using        2 parallel tasks.
  Task        0 on host theobook58 reporting.
  Task        1 on host theobook58 reporting.

  Performing system and environment tests:
  | Environment variable OMP_NUM_THREADS correctly set to 1.
  | Checking for scalapack...
  | No scalapack compiled in.

  Obtaining array dimensions for all initial allocations:
  
  -----------------------------------------------------------------------
  Parsing control.in (first pass over file, find array dimensions only).
  The contents of control.in will be repeated verbatim below
  unless switched off by setting 'verbatim_writeout .false.' .
  in the first line of control.in .
  -----------------------------------------------------------------------
  
  xc                      pbe0
  total_energy_method     mp2
  frozen_core_postSCF     1
  relativistic            none
  occupation_type         integer 0.0001
  mixer                   pulay
  n_max_pulay             10
  charge_mix_param        0.6
  sc_accuracy_rho         1E-6
  sc_accuracy_eev         1E-4
  sc_accuracy_etot        1E-6
  sc_iter_limit           200
  charge                  0
  spin                    collinear
  fixed_spin_moment       1
  default_initial_moment  hund
  en_shift                           3
  coupling_pt2_factor       1.00000000
  coupling_pt2_screen       1.00000000
  coupling_pt2_shift        0.00000000
  ################################################################################
  #
  #  FHI-aims code project
  # Igor Ying Zhang and Xinguo Ren, Fritz Haber Institute Berlin, 2012
  #
  #  Suggested "cc-pVDZ" defaults for H atom (to be pasted into control.in file)
  #
  ################################################################################
    species        H
  #     global species definitions
      nucleus             1
      mass                1.00794
  #
      l_hartree           6
  #
      cut_pot             4.0  2.0  1.0
      basis_dep_cutoff    0e-0
  #
      radial_base         24 7.0
      radial_multiplier   6
      angular_grids       specified
        division   0.1930   50
        division   0.3175  110
        division   0.4293  194
        division   0.5066  302
        division   0.5626  434
  #      division   0.5922  590
  #      division   0.6227  974
  #      division   0.6868 1202
  #      outer_grid  770
        outer_grid  434
  ################################################################################
  #
  #  Definition of "minimal" basis
  #
  ################################################################################
  #     valence basis states
      valence      1  s   1.
  #     ion occupancy
      ion_occ      1  s   0.5
  ################################################################################
  #
  #   For exact comparison with all GTO-based codes, one or more of
  #   the following flags are needed:
  #
      include_min_basis   .false.
      pure_gauss          .true.
  #
  
  # H cc-pVDZ
   gaussian 0 3
        13.0100000            0.0196850
         1.9620000            0.1379770
         0.4446000            0.4781480
   gaussian 0 1 0.1220000
   gaussian 1 1 0.7270000
  
  -----------------------------------------------------------------------
  Completed first pass over input file control.in .
  -----------------------------------------------------------------------
  
  
  -----------------------------------------------------------------------
  Parsing geometry.in (first pass over file, find array dimensions only).
  The contents of geometry.in will be repeated verbatim below
  unless switched off by setting 'verbatim_writeout .false.' .
  in the first line of geometry.in .
  -----------------------------------------------------------------------
  
  atom             0.0             0.0             0.0    H
  
  -----------------------------------------------------------------------
  Completed first pass over input file geometry.in .
  -----------------------------------------------------------------------
  
 
  Basic array size parameters: 
  | Number of species                 :        1
  | Number of atoms                   :        1
  | Max. basis fn. angular momentum   :        1
  | Max. atomic/ionic basis occupied n:        1
  | Max. number of basis fn. types    :        1
  | Max. radial fns per species/type  :        3
  | Max. logarithmic grid size        :     1131
  | Max. radial integration grid size :      149
  | Max. angular integration grid size:      434
  | Max. angular grid division number :        8
  | Radial grid for Hartree potential :     1131
  | Number of spin channels           :        2

------------------------------------------------------------
          Reading file control.in.
------------------------------------------------------------
  XC: Using hybrid-PBE0 functionals.
  MP2 correlation energy calculation will be started after the DFT/HF calculation.
  Core electrons are frozen in the post-SCF calculation :     1
  Non-relativistic treatment of kinetic energy.
  Occupation type: Integer occupation.
  Using pulay charge density mixing.
  Pulay mixing - number of memorized iterations:   10
  Charge density mixing - mixing parameter:     0.6000
  Convergence accuracy of self-consistent charge density: 0.1000E-05
  Convergence accuracy of sum of eigenvalues: 0.1000E-03
  Convergence accuracy of total energy: 0.1000E-05
  Maximum number of s.-c. iterations  :   200
  Charge =   0.000000E+00: Neutral system requested explicitly.
  Spin treatment: Spin density functional theory - collinear spins.
  Fixed spin moment calculation, N_up - N_down =      1.00000000
  Initial spin moment per atom set according to Hund's rules.
  Energy shifting on the denominators:      3
  Coupling factor for PT2 on the denominators: ******
  Screening factor for coupling PT2: ******
  Shift for screening effect in coupling PT2:      0
 
  Reading configuration options for species H                   .
  | Found nuclear charge :   1.0000
  | Found atomic mass :    1.00794000000000      amu
  | Found l_max for Hartree potential  :   6
  | Found cutoff potl. onset [A], width [A], scale factor :    4.00000    2.00000    1.00000
  | Threshold for basis-dependent cutoff potential is   0.000000E+00
  | Found data for basic radial integration grid :    24 points, outermost radius =    7.000 A
  | Found multiplier for basic radial grid :   6
  | Found angular grid specification: user-specified.
  | Specified grid contains     6 separate shells.
  | Check grid settings after all constraints further below.
  | Found free-atom valence shell :  1 s   1.000
  | No ionic wave fns used. Skipping ion_occ.
  | Found request to include minimal basis fns. :     F
  | Found request to include pure gaussian fns. :     T
  | Found contracted cartesian Gaussian basis function :  L = 0 ,   3 elementary Gaussians:
  |   alpha = 0.130100E+02 weight = 0.196850E-01
  |   alpha = 0.196200E+01 weight = 0.137977E+00
  |   alpha = 0.444600E+00 weight = 0.478148E+00
  |   In terms of angular momentum, this radial function adds: 
  |     1 s-type basis function
  | Found primitive cartesian Gaussian basis function :  0 0.122000E+00
  |   In terms of angular momentum, this radial function adds: 
  |     1 s-type basis function
  | Found primitive cartesian Gaussian basis function :  1 0.727000E+00
  |   In terms of angular momentum, this radial function adds: 
  |     3 p-type basis functions
  Species H                   : Missing cutoff potential type.
  Defaulting to exp(1/x)/(1-x)^2 type cutoff potential.
  Species H : No 'logarithmic' tag. Using default grid for free atom:
  | Default logarithmic grid data [bohr] : 0.1000E-03 0.1000E+03 0.1012E+01
  Species H : On-site basis accuracy parameter (for Gram-Schmidt orthonormalisation) not specified.
  Using default value basis_acc =  0.1000000E-03.
  Species H                   : Using default innermost maximum threshold i_radial=  2 for radial functions.
  Species H                   : Default cutoff onset for free atom density etc. is infinite
  since the product basis is used (hybrid functionals, Hartree-Fock, GW etc.).
  Species H                   : Basic radial grid will be enhanced according to radial_multiplier =   6, to contain   149 grid points.
 
  Finished reading input file 'control.in'. Consistency checks are next.
 
  Species H: Using default value for prodbas_acc =   1.000000E-02.
  Species H: Using default value max_l_prodbas =     5.
  Target number of points in a grid batch is not set. Defaulting to  100
  Method for grid partitioning is not set. Defaulting to parallel hash+maxmin partitioning.
  Batch size limit is not set. Defaulting to    200
  By default, will store active basis functions for each batch.
  If in need of memory, prune_basis_once .false. can be used to disable this option.
  communication_type for Hartree potential was not specified.
  Defaulting to calc_hartree .
  Pulay mixer: Number of initial linear mixing iterations not set.
  Defaulting to    0 iterations.
  Work space size for distributed Hartree potential not set.
  Defaulting to   0.200000E+03 MB.
  Mixing parameter for spin density mixing has not been set.
  Using charge_mix_param as default:     0.6000.
  Algorithm-dependent basis array size parameters:
  | n_max_pulay                         :       10
  Calculation of forces was not defined in control.in. No forces will be calculated.
  Geometry relaxation not requested: no relaxation will be performed.
  No accuracy limit for integral partition fn. given. Defaulting to 0.1000E-14.
  No threshold value for u(r) in integrations given. Defaulting to 0.1000E-05.
  No accuracy for occupation numbers given. Defaulting to 0.1000E-07.
  No threshold value for occupation numbers given. Defaulting to 0.0000E+00.
  No accuracy for fermi level given. Defaulting to 0.1000E-19.
  Maximum # of iterations to find E_F not set. Defaulting to  200.
  Preferred method for the eigenvalue solver ('KS_method') not specified in 'control.in'.
  Calling blacs routine to test compilation state
  The best choice would be 'elpa', but your version of FHI-aims is compiled without scalapack support.
  Defaulting to 'lapack_fast' instead (serial solution, time will not improve with more CPUs).
  Will not use alltoall communication since running on < 1024 CPUs.
  Threshold for basis singularities not set.
  Default threshold for basis singularities: 0.1000E-04
  partition_type (choice of integration weights) for integrals was not specified.
  | Using a version of the partition function of Stratmann and coworkers ('stratmann_smoother').
  | At each grid point, the set of atoms used to build the partition table is smoothly restricted to
  | only those atoms whose free-atom density would be non-zero at that grid point.
  Partitioning for Hartree potential was not defined. Using partition_type for integrals.
  | Adjusted default value of keyword multip_moments_threshold to:       0.10000000E-11
  | This value may affect high angular momentum components of the Hartree potential in periodic systems.
  Threshold for auxiliary basis singularities not set.
  Default threshold for auxiliary basis singularities: 0.1000E-04
  * Doing correlated calculations, so all empty single-particle states will be included.
  No q(lm)/r^(l+1) cutoff set for long-range Hartree potential.
  | Using default value of  0.100000E-09 .
  | Verify using the multipole_threshold keyword.
  Defaulting to new monopole extrapolation.
  Density update method: automatic selection selected.
  Default to 1D ("use_logsbt") integrations for auxiliary 2-center integrals.
  Default onset of logarithmic r-grid for SBT is-38.000000000000
  Default onset of logarithmic k-grid for SBT is-25.000000000000
  Default range of logarithmic r- and k-grid for SBT is 45.000000000000
  Default number of logarithmic r- and k-grid for SBT is  4096
------------------------------------------------------------


------------------------------------------------------------
          Reading geometry description geometry.in.
------------------------------------------------------------
  Input structure read successfully.
  The structure contains        1 atoms,  and a total of          1.000 electrons.

  Input geometry:
  | No unit cell requested.
  | Atomic structure:
  |       Atom                x [A]            y [A]            z [A]
  |    1: Species H          0.000000         0.000000         0.000000
  |

  Initial moments and charges:
  |  Atom   Moment         Charge        Species
  |     1  (Hund's rule)   0.000000E+00   H

  Structure-dependent array size parameters: 
  | Number of distinct atom types in initial rho :        1
  | Maximum number of distinct radial functions  :        3
  | Maximum number of basis functions            :        5
  | Number of Kohn-Sham states (occupied + empty):     1001
------------------------------------------------------------

------------------------------------------------------------
          Preparing all fixed parts of the calculation.
------------------------------------------------------------
  Determining machine precision:
    2.225073858507201E-308
  Setting up grids for atomic and cluster calculations.

  Creating wave function, potential, and density for free atoms.

  Species: H

  List of occupied orbitals and eigenvalues:
    n    l              occ      energy [Ha]    energy [eV]
    1    0           1.0000        -0.238600        -6.4926

  Spin-polarized or charged system:
  Charge density initialized according to selected moments and charges.

  Creating spin-polarized density from free atoms.

  Species: H
  Charge:   0.000000
  applying Hund's rules ...

  List of occupied orbitals and eigenvalues:
    n    l      energy [Ha]    energy [eV]    occupation
  Spin-up
    1    0        -0.278986        -7.5916     1.00000000
  Spin-down
    1    0         0.090850         2.4722     0.00000000

  Creating fixed part of basis set: Ionic, confined, hydrogenic.
 
  H                    Gaussian:
 
  List of cartesian Gaussian basis orbitals: 
    L    l
    0    0
    0    0
    1    1
 

  Adding cutoff potential to free-atom effective potential.
  Creating atomic-like basis functions for current effective potential.
  Assembling full basis from fixed parts.
  | Species H : gaussian orbital   0 s accepted.
  | Species H : gaussian orbital   0 s accepted.
  | Species H : gaussian orbital   1 p accepted.

  * You requested     1001 Kohn-Sham states in the calculation,
  * but there are only        5 available basis states.
  * Reducing total number of  Kohn-Sham states to        5.
 
 
  Basis size parameters after reduction:
  | Total number of radial functions:        3
  | Total number of basis functions :        5
 
  Preparing densities etc. for the partition functions (integrals / Hartree potential).

  Preparations completed.
  max(cpu_time)          :      0.108 s.
  Wall clock time (cpu1) :      0.118 s.
------------------------------------------------------------

------------------------------------------------------------
          Begin self-consistency loop: Initialization.

          Date     :  20130425, Time     :  105615.151
------------------------------------------------------------

  Initializing index lists of integration centers etc. from given atomic structure:
  | Number of centers in hartree potential         :         1
  | Number of centers in hartree multipole         :         1
  | Number of centers in electron density summation:         1
  | Number of centers in basis integrals           :         1
  | Number of centers in integrals                 :         1
  Partitioning the integration grid into batches with parallel hashing+maxmin method.
  | Number of batches:      472
  | Maximal batch size:     184
  | Minimal batch size:      78
  | Average batch size:      93.225
  | Standard deviation of batch sizes:      24.064

  Integration load balanced across     2 MPI tasks.
  Work distribution over tasks is as follows:
  Task     0 has      22048 integration points.
  Task     1 has      21954 integration points.
  Initializing partition tables, free-atom densities, potentials, etc. across the integration grid (initialize_grid_storage).
  | Original list of interatomic distances with           1 x          1 entries is created.
  | Net number of integration points:    44002
  | of which are non-zero points    :    44002
  Obtaining max. number of non-zero basis functions in each batch (get_n_compute_maxes).
  | Maximal number of non-zero basis functions:        5 in task     0
  | Maximal number of non-zero basis functions:        5 in task     1
  Selecting the method for density update.
  Loop over occupied states selected for charge density update.
  Integrating Hamiltonian matrix: batch-based integration.
  Time summed over all CPUs for integration: real work        0.074 s, elapsed        0.074 s
  Integrating overlap matrix.
  Time summed over all CPUs for integration: real work        0.015 s, elapsed        0.016 s

  Updating Kohn-Sham eigenvalues, eigenvectors, occupation numbers, and Fermi level.
  Solving generalized eigenproblem
  Updating Kohn-Sham eigenvalues and eigenfunctions.
  Transforming overlap matrix and checking for singularities.
  Overlap matrix is nonsingular:
  | Lowest eigenvalue:  0.100000E+01
  Solving real generalised eigenvalue problem by standard LAPACK (fast)
  Updating Kohn-Sham eigenvalues and eigenfunctions.
  Solving real generalised eigenvalue problem by standard LAPACK (fast)
  Determining occupation numbers for Kohn-Sham eigenstates.
  | Chemical potential (Fermi level) for spin channel 1 in eV               :    0.9150556507
  | Error in electron count due to remaining E_F inaccuracy: 0.0000E+00
  | Maximum occupation number of highest empty state:  0.00E+00

  Determining occupation numbers for Kohn-Sham eigenstates.
  | Chemical potential (Fermi level) for spin channel 2 in eV               :   31.2698313474
  | Error in electron count due to remaining E_F inaccuracy: 0.0000E+00
  | Maximum occupation number of highest empty state:  0.00E+00

  Fixed spin moments - chemical potentials:
  | Chemical potential, spin up:    0.9150556507 eV.
  | Chemical potential, spin dn:   31.2698313474 eV.
  | Fixed spin moment: Difference in chemical potentials between spin channels: -30.3547756967 eV.

  Writing Kohn-Sham eigenvalues.

  Spin-up eigenvalues:

  State    Occupation    Eigenvalue [Ha]    Eigenvalue [eV]
      1       1.00000          -0.295617           -8.04414
      2       0.00000           0.362872            9.87425
      3       0.00000           1.127054           30.66869
      4       0.00000           1.127054           30.66869
      5       0.00000           1.127054           30.66869

  Spin-down eigenvalues:

  State    Occupation    Eigenvalue [Ha]    Eigenvalue [eV]
      1       0.00000           0.463957           12.62491
      2       0.00000           1.834333           49.91475
      3       0.00000           2.628492           71.52489
      4       0.00000           2.628492           71.52489
      5       0.00000           2.628492           71.52489

  Current spin moment of the entire structure :
  | N = N_up - N_down :    1.00
  | S                 :    0.50
  | J                 :    2.00

  Highest occupied state (VBM) at     -8.04413528 eV
  | Occupation number:      1.00000000
  | Spin channel:        1

  Lowest unoccupied state (CBM) at     9.87424658 eV
  | Occupation number:      0.00000000
  | Spin channel:        1

  Overall HOMO-LUMO gap:     17.91838186 eV.
  Calculating total energy contributions from superposition of free atom densities.

  Total energy components:
  | Sum of eigenvalues            :          -0.29561654 Ha          -8.04413528 eV
  | XC energy correction          :          -0.23209475 Ha          -6.31561941 eV
  | XC potential correction       :           0.29742833 Ha           8.09343663 eV
  | Free-atom electrostatic energy:          -0.28981159 Ha          -7.88617464 eV
  | Hartree energy correction     :           0.00000000 Ha           0.00000000 eV
  | Entropy correction            :           0.00000000 Ha           0.00000000 eV
  | ---------------------------
  | Total energy                  :          -0.52009455 Ha         -14.15249269 eV
  | Total energy, T -> 0          :          -0.52009455 Ha         -14.15249269 eV  <-- do not rely on this value for anything but (periodic) metals
  | Electronic free energy        :          -0.52009455 Ha         -14.15249269 eV

  Derived energy quantities:
  | Kinetic energy                :           0.36681645 Ha           9.98158357 eV
  | Electrostatic energy          :          -0.65481625 Ha         -17.81845686 eV
  | Energy correction for multipole
  | error in Hartree potential    :           0.00000000 Ha           0.00000000 eV
  | Sum of eigenvalues per atom                           :          -8.04413528 eV
  | Total energy (T->0) per atom                          :         -14.15249269 eV  <-- do not rely on this value for anything but (periodic) metals
  | Electronic free energy per atom                       :         -14.15249269 eV
 
 --------------------------------------------
  Constructing auxiliary basis (full product) ...
 
  Product basis:
  | charge radius: extent of product basis function
  | field radius: extent of its Coulomb potential
  | Species   l  charge radius    field radius  multipol momen
  |    H      1     3.215356 A      3.215356 A   -5.9672E-17 a.u.
  |    H      0     3.815562 A      3.815562 A    1.1633E-16 a.u.
  |    H      0     5.781930 A      5.781930 A    3.1116E-16 a.u.
  |    H      2     2.517934 A    8.6084E+03 A      0.342576 a.u.
  |    H      1     3.254905 A    1.2873E+06 A      0.470947 a.u.
  |    H      0     5.711676 A    3.4615E+12 A      0.520541 a.u.

  | Shrink_full_auxil_basis : there are        6  radial auxiliary wave functions
                            accepted and       2 rejected.
  | Shrink_full_auxil_basis : there are totally      14 partial auxiliary wave functions.
 
  | Number of product basis functions per thread :     7
  | Minimal requirement for computer memories :           0.000 Gbs
 
  Basis pair condensation :        15  -->         15
 
 ----------------------------------------------------
  Integrating the 3-basis-function Coulomb matrix ...
  | i_atom:            1
  Integrating the Coulomb interaction matrix for auxiliary basis functions (by atoms)

  SBT integration errors (all should be 'small'):
  large logFT aliasing -> increase N/lnrange
  large SBT aliasing -> decrease lnk0 & increase lnk0+lnrange
  large SBT ringing -> decrease lnr0 & increase lnr0+lnrange
  |            El't  L: logFT-al.   small-k   large-k   small-r   large-r
  Atomic logSBT for 2-center Coulomb matrix    :  max(cpu_time)    wall_clock(cpu1)
  | Multiplication with kernel                 :        0.000 s           0.000 s
  | Main matrix multiplication                 :        0.000 s           0.000 s
  | Analytic angular integration               :        0.000 s           0.000 s
  | Kernel construction                        :        0.000 s           0.000 s
  | Overall 2-center overlap time              :        0.000 s           0.001 s

  Difference of Coulomb matrix to its transposed:  1.4469E-17
  Task     0: Eigenvalues of the Coulomb matrix range from    9.9999E-01 to    9.9989E-01.
  Task     0: Using       14   eigenvalues out of rank       14   Coulomb matrix (auxiliary basis).
 
  Multiplying V^-0.5 x ovlp_3fn (1d-scalapack)

  Initialize hartree_potential_storage
  Max. number of atoms included in rho_multipole:            1

  End scf initialization - timings             :  max(cpu_time)    wall_clock(cpu1)
  | Time for scf. initialization               :        0.240 s           0.237 s
  | Boundary condition initialization          :        0.000 s           0.000 s
  | Integration                                :        0.048 s           0.045 s
  | Solution of K.-S. eqns.                    :        0.000 s           0.001 s
  | Grid partitioning                          :        0.048 s           0.047 s
  | Preloading free-atom quantities on grid    :        0.036 s           0.034 s
  | Free-atom superposition energy             :        0.020 s           0.020 s
  | Total energy evaluation                    :        0.000 s           0.000 s
  | Product basis setup: Total time            :        0.080 s           0.077 s
  | Product basis: | 3-center integrations     :        0.040 s           0.037 s
  | Product basis: | 2-center integrations     :        0.032 s           0.034 s
  | Product basis: | 2-center linear algebra   :        0.000 s           0.000 s
  | Product basis: | 3-center x 2-center       :        0.000 s           0.000 s
------------------------------------------------------------

------------------------------------------------------------
          Begin self-consistency iteration #    1

  Date     :  20130425, Time     :  105615.389
------------------------------------------------------------
  Evaluating new KS density.
  Integration grid: deviation in total charge (<rho> - N_e) =   2.467458E-09
  | <rho_up-rho_dn> = N_up-N_dn =      1.0000; <|rho_up-rho_dn|> =      1.0036
  Pulay mixing of updated and previous charge densities.

  Evaluating partitioned Hartree potential by multipole expansion.
  | Analytical far-field extrapolation by fixed multipoles:
  | Hartree multipole sum: apparent total charge =  -0.489748E-07
  Summing up the Hartree potential.
  Time summed over all CPUs for potential: real work        0.014 s, elapsed        0.015 s
  | RMS charge density error from multipole expansion :   0.139931E-15

  Integrating Hamiltonian matrix: batch-based integration.
  Time summed over all CPUs for integration: real work        0.076 s, elapsed        0.076 s
  Evaluating the exchange matrix ... 

  Updating Kohn-Sham eigenvalues, eigenvectors, occupation numbers, and Fermi level.
  Solving generalized eigenproblem
  Updating Kohn-Sham eigenvalues and eigenfunctions.
  Solving real generalised eigenvalue problem by standard LAPACK (fast)
  Updating Kohn-Sham eigenvalues and eigenfunctions.
  Solving real generalised eigenvalue problem by standard LAPACK (fast)
  Determining occupation numbers for Kohn-Sham eigenstates.
  | Chemical potential (Fermi level) for spin channel 1 in eV               :    1.2863934954
  | Error in electron count due to remaining E_F inaccuracy: 0.0000E+00
  | Maximum occupation number of highest empty state:  0.00E+00

  Determining occupation numbers for Kohn-Sham eigenstates.
  | Chemical potential (Fermi level) for spin channel 2 in eV               :   31.5013800592
  | Error in electron count due to remaining E_F inaccuracy: 0.0000E+00
  | Maximum occupation number of highest empty state:  0.00E+00

  Fixed spin moments - chemical potentials:
  | Chemical potential, spin up:    1.2863934954 eV.
  | Chemical potential, spin dn:   31.5013800592 eV.
  | Fixed spin moment: Difference in chemical potentials between spin channels: -30.2149865638 eV.

  Writing Kohn-Sham eigenvalues.

  Spin-up eigenvalues:

  State    Occupation    Eigenvalue [Ha]    Eigenvalue [eV]
      1       1.00000          -0.332908           -9.05887
      2       0.00000           0.427456           11.63166
      3       0.00000           1.219913           33.19552
      4       0.00000           1.219913           33.19552
      5       0.00000           1.219913           33.19552

  Spin-down eigenvalues:

  State    Occupation    Eigenvalue [Ha]    Eigenvalue [eV]
      1       0.00000           0.456211           12.41412
      2       0.00000           1.859098           50.58864
      3       0.00000           2.657049           72.30197
      4       0.00000           2.657049           72.30197
      5       0.00000           2.657049           72.30197

  Current spin moment of the entire structure :
  | N = N_up - N_down :    1.00
  | S                 :    0.50
  | J                 :    2.00

  Highest occupied state (VBM) at     -9.05887414 eV
  | Occupation number:      1.00000000
  | Spin channel:        1

  Lowest unoccupied state (CBM) at    11.63166113 eV
  | Occupation number:      0.00000000
  | Spin channel:        1

  Overall HOMO-LUMO gap:     20.69053527 eV.

  Total energy components:
  | Sum of eigenvalues            :          -0.33290751 Ha          -9.05887414 eV
  | XC energy correction          :          -0.15697686 Ha          -4.27155776 eV
  | XC potential correction       :           0.30321708 Ha           8.25095668 eV
  | Free-atom electrostatic energy:          -0.28981159 Ha          -7.88617464 eV
  | Hartree energy correction     :          -0.02375924 Ha          -0.64652186 eV
  | Entropy correction            :           0.00000000 Ha           0.00000000 eV
  | ---------------------------
  | Total energy                  :          -0.50023812 Ha         -13.61217172 eV
  | Total energy, T -> 0          :          -0.50023812 Ha         -13.61217172 eV  <-- do not rely on this value for anything but (periodic) metals
  | Electronic free energy        :          -0.50023812 Ha         -13.61217172 eV

  Derived energy quantities:
  | Kinetic energy                :           0.98620814 Ha          26.83608900 eV
  | Electrostatic energy          :          -0.69335045 Ha         -18.86702573 eV
  | Energy correction for multipole
  | error in Hartree potential    :           0.00000000 Ha           0.00000000 eV
  | Sum of eigenvalues per atom                           :          -9.05887414 eV
  | Total energy (T->0) per atom                          :         -13.61217172 eV  <-- do not rely on this value for anything but (periodic) metals
  | Electronic free energy per atom                       :         -13.61217172 eV

  Self-consistency convergence accuracy:
  | Change of charge/spin density : 0.7218E-02 0.7218E-02
  | Change of sum of eigenvalues  : -.1015E+01 eV
  | Change of total energy        : 0.5403E+00 eV

  End self-consistency iteration #     1       :  max(cpu_time)    wall_clock(cpu1)
  | Time for this iteration                    :        0.076 s           0.074 s
  | Charge density update                      :        0.024 s           0.021 s
  | Density mixing                             :        0.004 s           0.003 s
  | Hartree multipole update                   :        0.004 s           0.003 s
  | Hartree multipole summation                :        0.008 s           0.008 s
  | Integration                                :        0.040 s           0.038 s
  | Fock matrix evaluation                     :        0.000 s           0.000 s
  | Solution of K.-S. eqns.                    :        0.000 s           0.001 s
  | Total energy evaluation                    :        0.000 s           0.000 s
------------------------------------------------------------

------------------------------------------------------------
          Begin self-consistency iteration #    2

  Date     :  20130425, Time     :  105615.463
------------------------------------------------------------
  Evaluating new KS density.
  Integration grid: deviation in total charge (<rho> - N_e) =   9.869827E-10
  | <rho_up-rho_dn> = N_up-N_dn =      1.0000; <|rho_up-rho_dn|> =      1.0005
  Pulay mixing of updated and previous charge densities.

  Evaluating partitioned Hartree potential by multipole expansion.
  | Analytical far-field extrapolation by fixed multipoles:
  | Hartree multipole sum: apparent total charge =  -0.499352E-07
  Summing up the Hartree potential.
  Time summed over all CPUs for potential: real work        0.014 s, elapsed        0.014 s
  | RMS charge density error from multipole expansion :   0.150495E-15

  Integrating Hamiltonian matrix: batch-based integration.
  Time summed over all CPUs for integration: real work        0.076 s, elapsed        0.076 s
  Evaluating the exchange matrix ... 

  Updating Kohn-Sham eigenvalues, eigenvectors, occupation numbers, and Fermi level.
  Solving generalized eigenproblem
  Updating Kohn-Sham eigenvalues and eigenfunctions.
  Solving real generalised eigenvalue problem by standard LAPACK (fast)
  Updating Kohn-Sham eigenvalues and eigenfunctions.
  Solving real generalised eigenvalue problem by standard LAPACK (fast)
  Determining occupation numbers for Kohn-Sham eigenstates.
  | Chemical potential (Fermi level) for spin channel 1 in eV               :    1.2939726759
  | Error in electron count due to remaining E_F inaccuracy: 0.0000E+00
  | Maximum occupation number of highest empty state:  0.00E+00

  Determining occupation numbers for Kohn-Sham eigenstates.
  | Chemical potential (Fermi level) for spin channel 2 in eV               :   31.4345775394
  | Error in electron count due to remaining E_F inaccuracy: 0.0000E+00
  | Maximum occupation number of highest empty state:  0.00E+00

  Fixed spin moments - chemical potentials:
  | Chemical potential, spin up:    1.2939726759 eV.
  | Chemical potential, spin dn:   31.4345775394 eV.
  | Fixed spin moment: Difference in chemical potentials between spin channels: -30.1406048635 eV.

  Current spin moment of the entire structure :
  | N = N_up - N_down :    1.00
  | S                 :    0.50
  | J                 :    2.00

  Highest occupied state (VBM) at     -9.05387759 eV
  | Occupation number:      1.00000000
  | Spin channel:        1

  Lowest unoccupied state (CBM) at    11.64182294 eV
  | Occupation number:      0.00000000
  | Spin channel:        1

  Overall HOMO-LUMO gap:     20.69570053 eV.

  Total energy components:
  | Sum of eigenvalues            :          -0.33272389 Ha          -9.05387759 eV
  | XC energy correction          :          -0.15750285 Ha          -4.28587054 eV
  | XC potential correction       :           0.30266050 Ha           8.23581131 eV
  | Free-atom electrostatic energy:          -0.28981159 Ha          -7.88617464 eV
  | Hartree energy correction     :          -0.02330436 Ha          -0.63414401 eV
  | Entropy correction            :           0.00000000 Ha           0.00000000 eV
  | ---------------------------
  | Total energy                  :          -0.50068219 Ha         -13.62425546 eV
  | Total energy, T -> 0          :          -0.50068219 Ha         -13.62425546 eV  <-- do not rely on this value for anything but (periodic) metals
  | Electronic free energy        :          -0.50068219 Ha         -13.62425546 eV

  Derived energy quantities:
  | Kinetic energy                :           0.97513748 Ha          26.53484090 eV
  | Electrostatic energy          :          -0.69017014 Ha         -18.78048514 eV
  | Energy correction for multipole
  | error in Hartree potential    :           0.00000000 Ha           0.00000000 eV
  | Sum of eigenvalues per atom                           :          -9.05387759 eV
  | Total energy (T->0) per atom                          :         -13.62425546 eV  <-- do not rely on this value for anything but (periodic) metals
  | Electronic free energy per atom                       :         -13.62425546 eV

  Self-consistency convergence accuracy:
  | Change of charge/spin density : 0.4116E-02 0.4116E-02
  | Change of sum of eigenvalues  : 0.4997E-02 eV
  | Change of total energy        : -.1208E-01 eV

  End self-consistency iteration #     2       :  max(cpu_time)    wall_clock(cpu1)
  | Time for this iteration                    :        0.072 s           0.073 s
  | Charge density update                      :        0.020 s           0.018 s
  | Density mixing                             :        0.008 s           0.005 s
  | Hartree multipole update                   :        0.004 s           0.002 s
  | Hartree multipole summation                :        0.008 s           0.007 s
  | Integration                                :        0.040 s           0.039 s
  | Fock matrix evaluation                     :        0.000 s           0.000 s
  | Solution of K.-S. eqns.                    :        0.000 s           0.000 s
  | Total energy evaluation                    :        0.000 s           0.000 s
------------------------------------------------------------

------------------------------------------------------------
          Begin self-consistency iteration #    3

  Date     :  20130425, Time     :  105615.536
------------------------------------------------------------
  Evaluating new KS density.
  Integration grid: deviation in total charge (<rho> - N_e) =   5.815608E-10
  | <rho_up-rho_dn> = N_up-N_dn =      1.0000; <|rho_up-rho_dn|> =      1.0002
  Pulay mixing of updated and previous charge densities.

  Evaluating partitioned Hartree potential by multipole expansion.
  | Analytical far-field extrapolation by fixed multipoles:
  | Hartree multipole sum: apparent total charge =  -0.513412E-07
  Summing up the Hartree potential.
  Time summed over all CPUs for potential: real work        0.014 s, elapsed        0.014 s
  | RMS charge density error from multipole expansion :   0.215590E-15

  Integrating Hamiltonian matrix: batch-based integration.
  Time summed over all CPUs for integration: real work        0.076 s, elapsed        0.076 s
  Evaluating the exchange matrix ... 

  Updating Kohn-Sham eigenvalues, eigenvectors, occupation numbers, and Fermi level.
  Solving generalized eigenproblem
  Updating Kohn-Sham eigenvalues and eigenfunctions.
  Solving real generalised eigenvalue problem by standard LAPACK (fast)
  Updating Kohn-Sham eigenvalues and eigenfunctions.
  Solving real generalised eigenvalue problem by standard LAPACK (fast)
  Determining occupation numbers for Kohn-Sham eigenstates.
  | Chemical potential (Fermi level) for spin channel 1 in eV               :    1.2965974348
  | Error in electron count due to remaining E_F inaccuracy: 0.0000E+00
  | Maximum occupation number of highest empty state:  0.00E+00

  Determining occupation numbers for Kohn-Sham eigenstates.
  | Chemical potential (Fermi level) for spin channel 2 in eV               :   31.3252700490
  | Error in electron count due to remaining E_F inaccuracy: 0.0000E+00
  | Maximum occupation number of highest empty state:  0.00E+00

  Fixed spin moments - chemical potentials:
  | Chemical potential, spin up:    1.2965974348 eV.
  | Chemical potential, spin dn:   31.3252700490 eV.
  | Fixed spin moment: Difference in chemical potentials between spin channels: -30.0286726142 eV.

  Current spin moment of the entire structure :
  | N = N_up - N_down :    1.00
  | S                 :    0.50
  | J                 :    2.00

  Highest occupied state (VBM) at     -9.05666399 eV
  | Occupation number:      1.00000000
  | Spin channel:        1

  Lowest unoccupied state (CBM) at    11.64985886 eV
  | Occupation number:      0.00000000
  | Spin channel:        1

  Overall HOMO-LUMO gap:     20.70652285 eV.

  Total energy components:
  | Sum of eigenvalues            :          -0.33282628 Ha          -9.05666399 eV
  | XC energy correction          :          -0.15687732 Ha          -4.26884896 eV
  | XC potential correction       :           0.30123852 Ha           8.19711728 eV
  | Free-atom electrostatic energy:          -0.28981159 Ha          -7.88617464 eV
  | Hartree energy correction     :          -0.02198100 Ha          -0.59813341 eV
  | Entropy correction            :           0.00000000 Ha           0.00000000 eV
  | ---------------------------
  | Total energy                  :          -0.50025767 Ha         -13.61270371 eV
  | Total energy, T -> 0          :          -0.50025767 Ha         -13.61270371 eV  <-- do not rely on this value for anything but (periodic) metals
  | Electronic free energy        :          -0.50025767 Ha         -13.61270371 eV

  Derived energy quantities:
  | Kinetic energy                :           0.96465086 Ha          26.24948558 eV
  | Electrostatic energy          :          -0.68417761 Ha         -18.61741995 eV
  | Energy correction for multipole
  | error in Hartree potential    :           0.00000000 Ha           0.00000000 eV
  | Sum of eigenvalues per atom                           :          -9.05666399 eV
  | Total energy (T->0) per atom                          :         -13.61270371 eV  <-- do not rely on this value for anything but (periodic) metals
  | Electronic free energy per atom                       :         -13.61270371 eV

  Self-consistency convergence accuracy:
  | Change of charge/spin density : 0.2834E-02 0.2834E-02
  | Change of sum of eigenvalues  : -.2786E-02 eV
  | Change of total energy        : 0.1155E-01 eV

  End self-consistency iteration #     3       :  max(cpu_time)    wall_clock(cpu1)
  | Time for this iteration                    :        0.076 s           0.075 s
  | Charge density update                      :        0.020 s           0.018 s
  | Density mixing                             :        0.012 s           0.008 s
  | Hartree multipole update                   :        0.000 s           0.003 s
  | Hartree multipole summation                :        0.008 s           0.007 s
  | Integration                                :        0.040 s           0.039 s
  | Fock matrix evaluation                     :        0.000 s           0.000 s
  | Solution of K.-S. eqns.                    :        0.000 s           0.000 s
  | Total energy evaluation                    :        0.000 s           0.000 s
------------------------------------------------------------

------------------------------------------------------------
          Begin self-consistency iteration #    4

  Date     :  20130425, Time     :  105615.611
------------------------------------------------------------
  Evaluating new KS density.
  Integration grid: deviation in total charge (<rho> - N_e) =   1.166844E-12
  | <rho_up-rho_dn> = N_up-N_dn =      1.0000; <|rho_up-rho_dn|> =      1.0000
  Pulay mixing of updated and previous charge densities.

  Evaluating partitioned Hartree potential by multipole expansion.
  | Analytical far-field extrapolation by fixed multipoles:
  | Hartree multipole sum: apparent total charge =  -0.513655E-07
  Summing up the Hartree potential.
  Time summed over all CPUs for potential: real work        0.014 s, elapsed        0.014 s
  | RMS charge density error from multipole expansion :   0.213370E-15

  Integrating Hamiltonian matrix: batch-based integration.
  Time summed over all CPUs for integration: real work        0.076 s, elapsed        0.077 s
  Evaluating the exchange matrix ... 

  Updating Kohn-Sham eigenvalues, eigenvectors, occupation numbers, and Fermi level.
  Solving generalized eigenproblem
  Updating Kohn-Sham eigenvalues and eigenfunctions.
  Solving real generalised eigenvalue problem by standard LAPACK (fast)
  Updating Kohn-Sham eigenvalues and eigenfunctions.
  Solving real generalised eigenvalue problem by standard LAPACK (fast)
  Determining occupation numbers for Kohn-Sham eigenstates.
  | Chemical potential (Fermi level) for spin channel 1 in eV               :    1.2906000448
  | Error in electron count due to remaining E_F inaccuracy: 0.0000E+00
  | Maximum occupation number of highest empty state:  0.00E+00

  Determining occupation numbers for Kohn-Sham eigenstates.
  | Chemical potential (Fermi level) for spin channel 2 in eV               :   31.3214826057
  | Error in electron count due to remaining E_F inaccuracy: 0.0000E+00
  | Maximum occupation number of highest empty state:  0.00E+00

  Fixed spin moments - chemical potentials:
  | Chemical potential, spin up:    1.2906000448 eV.
  | Chemical potential, spin dn:   31.3214826057 eV.
  | Fixed spin moment: Difference in chemical potentials between spin channels: -30.0308825609 eV.

  Current spin moment of the entire structure :
  | N = N_up - N_down :    1.00
  | S                 :    0.50
  | J                 :    2.00

  Highest occupied state (VBM) at     -9.06367798 eV
  | Occupation number:      1.00000000
  | Spin channel:        1

  Lowest unoccupied state (CBM) at    11.64487807 eV
  | Occupation number:      0.00000000
  | Spin channel:        1

  Overall HOMO-LUMO gap:     20.70855605 eV.

  Total energy components:
  | Sum of eigenvalues            :          -0.33308404 Ha          -9.06367798 eV
  | XC energy correction          :          -0.15666609 Ha          -4.26310109 eV
  | XC potential correction       :           0.30078966 Ha           8.18490302 eV
  | Free-atom electrostatic energy:          -0.28981159 Ha          -7.88617464 eV
  | Hartree energy correction     :          -0.02150520 Ha          -0.58518629 eV
  | Entropy correction            :           0.00000000 Ha           0.00000000 eV
  | ---------------------------
  | Total energy                  :          -0.50027726 Ha         -13.61323698 eV
  | Total energy, T -> 0          :          -0.50027726 Ha         -13.61323698 eV  <-- do not rely on this value for anything but (periodic) metals
  | Electronic free energy        :          -0.50027726 Ha         -13.61323698 eV

  Derived energy quantities:
  | Kinetic energy                :           0.96229198 Ha          26.18529707 eV
  | Electrostatic energy          :          -0.68316820 Ha         -18.58995259 eV
  | Energy correction for multipole
  | error in Hartree potential    :           0.00000000 Ha           0.00000000 eV
  | Sum of eigenvalues per atom                           :          -9.06367798 eV
  | Total energy (T->0) per atom                          :         -13.61323698 eV  <-- do not rely on this value for anything but (periodic) metals
  | Electronic free energy per atom                       :         -13.61323698 eV

  Self-consistency convergence accuracy:
  | Change of charge/spin density : 0.4063E-03 0.4063E-03
  | Change of sum of eigenvalues  : -.7014E-02 eV
  | Change of total energy        : -.5333E-03 eV

  End self-consistency iteration #     4       :  max(cpu_time)    wall_clock(cpu1)
  | Time for this iteration                    :        0.076 s           0.078 s
  | Charge density update                      :        0.016 s           0.018 s
  | Density mixing                             :        0.012 s           0.011 s
  | Hartree multipole update                   :        0.004 s           0.002 s
  | Hartree multipole summation                :        0.004 s           0.008 s
  | Integration                                :        0.040 s           0.038 s
  | Fock matrix evaluation                     :        0.000 s           0.000 s
  | Solution of K.-S. eqns.                    :        0.000 s           0.001 s
  | Total energy evaluation                    :        0.000 s           0.000 s
------------------------------------------------------------

------------------------------------------------------------
          Begin self-consistency iteration #    5

  Date     :  20130425, Time     :  105615.689
------------------------------------------------------------
  Evaluating new KS density.
  Integration grid: deviation in total charge (<rho> - N_e) =  -1.176836E-14
  | <rho_up-rho_dn> = N_up-N_dn =      1.0000; <|rho_up-rho_dn|> =      1.0000
  Pulay mixing of updated and previous charge densities.
  * Rank deficiency in solve_pulay; rank =     3; saved_iter =     4

  Evaluating partitioned Hartree potential by multipole expansion.
  | Analytical far-field extrapolation by fixed multipoles:
  | Hartree multipole sum: apparent total charge =  -0.513621E-07
  Summing up the Hartree potential.
  Time summed over all CPUs for potential: real work        0.014 s, elapsed        0.014 s
  | RMS charge density error from multipole expansion :   0.194576E-15

  Integrating Hamiltonian matrix: batch-based integration.
  Time summed over all CPUs for integration: real work        0.076 s, elapsed        0.077 s
  Evaluating the exchange matrix ... 

  Updating Kohn-Sham eigenvalues, eigenvectors, occupation numbers, and Fermi level.
  Solving generalized eigenproblem
  Updating Kohn-Sham eigenvalues and eigenfunctions.
  Solving real generalised eigenvalue problem by standard LAPACK (fast)
  Updating Kohn-Sham eigenvalues and eigenfunctions.
  Solving real generalised eigenvalue problem by standard LAPACK (fast)
  Determining occupation numbers for Kohn-Sham eigenstates.
  | Chemical potential (Fermi level) for spin channel 1 in eV               :    1.2915277130
  | Error in electron count due to remaining E_F inaccuracy: 0.0000E+00
  | Maximum occupation number of highest empty state:  0.00E+00

  Determining occupation numbers for Kohn-Sham eigenstates.
  | Chemical potential (Fermi level) for spin channel 2 in eV               :   31.3220402398
  | Error in electron count due to remaining E_F inaccuracy: 0.0000E+00
  | Maximum occupation number of highest empty state:  0.00E+00

  Fixed spin moments - chemical potentials:
  | Chemical potential, spin up:    1.2915277130 eV.
  | Chemical potential, spin dn:   31.3220402398 eV.
  | Fixed spin moment: Difference in chemical potentials between spin channels: -30.0305125268 eV.

  Current spin moment of the entire structure :
  | N = N_up - N_down :    1.00
  | S                 :    0.50
  | J                 :    2.00

  Highest occupied state (VBM) at     -9.06259365 eV
  | Occupation number:      1.00000000
  | Spin channel:        1

  Lowest unoccupied state (CBM) at    11.64564908 eV
  | Occupation number:      0.00000000
  | Spin channel:        1

  Overall HOMO-LUMO gap:     20.70824273 eV.

  Total energy components:
  | Sum of eigenvalues            :          -0.33304420 Ha          -9.06259365 eV
  | XC energy correction          :          -0.15671453 Ha          -4.26441944 eV
  | XC potential correction       :           0.30085859 Ha           8.18677882 eV
  | Free-atom electrostatic energy:          -0.28981159 Ha          -7.88617464 eV
  | Hartree energy correction     :          -0.02157831 Ha          -0.58717574 eV
  | Entropy correction            :           0.00000000 Ha           0.00000000 eV
  | ---------------------------
  | Total energy                  :          -0.50029004 Ha         -13.61358464 eV
  | Total energy, T -> 0          :          -0.50029004 Ha         -13.61358464 eV  <-- do not rely on this value for anything but (periodic) metals
  | Electronic free energy        :          -0.50029004 Ha         -13.61358464 eV

  Derived energy quantities:
  | Kinetic energy                :           0.96252570 Ha          26.19165682 eV
  | Electrostatic energy          :          -0.68332260 Ha         -18.59415390 eV
  | Energy correction for multipole
  | error in Hartree potential    :           0.00000000 Ha           0.00000000 eV
  | Sum of eigenvalues per atom                           :          -9.06259365 eV
  | Total energy (T->0) per atom                          :         -13.61358464 eV  <-- do not rely on this value for anything but (periodic) metals
  | Electronic free energy per atom                       :         -13.61358464 eV

  Self-consistency convergence accuracy:
  | Change of charge/spin density : 0.7750E-04 0.7750E-04
  | Change of sum of eigenvalues  : 0.1084E-02 eV
  | Change of total energy        : -.3477E-03 eV

  End self-consistency iteration #     5       :  max(cpu_time)    wall_clock(cpu1)
  | Time for this iteration                    :        0.080 s           0.079 s
  | Charge density update                      :        0.020 s           0.018 s
  | Density mixing                             :        0.012 s           0.012 s
  | Hartree multipole update                   :        0.000 s           0.002 s
  | Hartree multipole summation                :        0.008 s           0.008 s
  | Integration                                :        0.040 s           0.038 s
  | Fock matrix evaluation                     :        0.000 s           0.000 s
  | Solution of K.-S. eqns.                    :        0.000 s           0.001 s
  | Total energy evaluation                    :        0.000 s           0.000 s
------------------------------------------------------------

------------------------------------------------------------
          Begin self-consistency iteration #    6

  Date     :  20130425, Time     :  105615.768
------------------------------------------------------------
  Evaluating new KS density.
  Integration grid: deviation in total charge (<rho> - N_e) =  -7.327472E-15
  | <rho_up-rho_dn> = N_up-N_dn =      1.0000; <|rho_up-rho_dn|> =      1.0000
  Pulay mixing of updated and previous charge densities.
  * Rank deficiency in solve_pulay; rank =     4; saved_iter =     5

  Evaluating partitioned Hartree potential by multipole expansion.
  | Analytical far-field extrapolation by fixed multipoles:
  | Hartree multipole sum: apparent total charge =  -0.513620E-07
  Summing up the Hartree potential.
  Time summed over all CPUs for potential: real work        0.014 s, elapsed        0.014 s
  | RMS charge density error from multipole expansion :   0.180009E-15

  Integrating Hamiltonian matrix: batch-based integration.
  Time summed over all CPUs for integration: real work        0.076 s, elapsed        0.077 s
  Evaluating the exchange matrix ... 

  Updating Kohn-Sham eigenvalues, eigenvectors, occupation numbers, and Fermi level.
  Solving generalized eigenproblem
  Updating Kohn-Sham eigenvalues and eigenfunctions.
  Solving real generalised eigenvalue problem by standard LAPACK (fast)
  Updating Kohn-Sham eigenvalues and eigenfunctions.
  Solving real generalised eigenvalue problem by standard LAPACK (fast)
  Determining occupation numbers for Kohn-Sham eigenstates.
  | Chemical potential (Fermi level) for spin channel 1 in eV               :    1.2915519562
  | Error in electron count due to remaining E_F inaccuracy: 0.0000E+00
  | Maximum occupation number of highest empty state:  0.00E+00

  Determining occupation numbers for Kohn-Sham eigenstates.
  | Chemical potential (Fermi level) for spin channel 2 in eV               :   31.3220561275
  | Error in electron count due to remaining E_F inaccuracy: 0.0000E+00
  | Maximum occupation number of highest empty state:  0.00E+00

  Fixed spin moments - chemical potentials:
  | Chemical potential, spin up:    1.2915519562 eV.
  | Chemical potential, spin dn:   31.3220561275 eV.
  | Fixed spin moment: Difference in chemical potentials between spin channels: -30.0305041713 eV.

  Current spin moment of the entire structure :
  | N = N_up - N_down :    1.00
  | S                 :    0.50
  | J                 :    2.00

  Highest occupied state (VBM) at     -9.06256490 eV
  | Occupation number:      1.00000000
  | Spin channel:        1

  Lowest unoccupied state (CBM) at    11.64566881 eV
  | Occupation number:      0.00000000
  | Spin channel:        1

  Overall HOMO-LUMO gap:     20.70823372 eV.

  Total energy components:
  | Sum of eigenvalues            :          -0.33304314 Ha          -9.06256490 eV
  | XC energy correction          :          -0.15671517 Ha          -4.26443677 eV
  | XC potential correction       :           0.30086040 Ha           8.18682800 eV
  | Free-atom electrostatic energy:          -0.28981159 Ha          -7.88617464 eV
  | Hartree energy correction     :          -0.02158023 Ha          -0.58722785 eV
  | Entropy correction            :           0.00000000 Ha           0.00000000 eV
  | ---------------------------
  | Total energy                  :          -0.50028973 Ha         -13.61357616 eV
  | Total energy, T -> 0          :          -0.50028973 Ha         -13.61357616 eV  <-- do not rely on this value for anything but (periodic) metals
  | Electronic free energy        :          -0.50028973 Ha         -13.61357616 eV

  Derived energy quantities:
  | Kinetic energy                :           0.96253694 Ha          26.19196284 eV
  | Electrostatic energy          :          -0.68332668 Ha         -18.59426497 eV
  | Energy correction for multipole
  | error in Hartree potential    :           0.00000000 Ha           0.00000000 eV
  | Sum of eigenvalues per atom                           :          -9.06256490 eV
  | Total energy (T->0) per atom                          :         -13.61357616 eV  <-- do not rely on this value for anything but (periodic) metals
  | Electronic free energy per atom                       :         -13.61357616 eV

  Self-consistency convergence accuracy:
  | Change of charge/spin density : 0.3343E-05 0.3343E-05
  | Change of sum of eigenvalues  : 0.2875E-04 eV
  | Change of total energy        : 0.8487E-05 eV

  End self-consistency iteration #     6       :  max(cpu_time)    wall_clock(cpu1)
  | Time for this iteration                    :        0.080 s           0.080 s
  | Charge density update                      :        0.020 s           0.018 s
  | Density mixing                             :        0.012 s           0.013 s
  | Hartree multipole update                   :        0.004 s           0.002 s
  | Hartree multipole summation                :        0.008 s           0.008 s
  | Integration                                :        0.040 s           0.039 s
  | Fock matrix evaluation                     :        0.000 s           0.000 s
  | Solution of K.-S. eqns.                    :        0.000 s           0.000 s
  | Total energy evaluation                    :        0.000 s           0.000 s
------------------------------------------------------------

------------------------------------------------------------
          Begin self-consistency iteration #    7

  Date     :  20130425, Time     :  105615.849
------------------------------------------------------------
  Evaluating new KS density.
  Integration grid: deviation in total charge (<rho> - N_e) =   1.332268E-15
  | <rho_up-rho_dn> = N_up-N_dn =      1.0000; <|rho_up-rho_dn|> =      1.0000
  Pulay mixing of updated and previous charge densities.
  * Rank deficiency in solve_pulay; rank =     4; saved_iter =     6

  Evaluating partitioned Hartree potential by multipole expansion.
  | Analytical far-field extrapolation by fixed multipoles:
  | Hartree multipole sum: apparent total charge =  -0.513620E-07
  Summing up the Hartree potential.
  Time summed over all CPUs for potential: real work        0.014 s, elapsed        0.014 s
  | RMS charge density error from multipole expansion :   0.174172E-15

  Integrating Hamiltonian matrix: batch-based integration.
  Time summed over all CPUs for integration: real work        0.076 s, elapsed        0.077 s
  Evaluating the exchange matrix ... 

  Updating Kohn-Sham eigenvalues, eigenvectors, occupation numbers, and Fermi level.
  Solving generalized eigenproblem
  Updating Kohn-Sham eigenvalues and eigenfunctions.
  Solving real generalised eigenvalue problem by standard LAPACK (fast)
  Updating Kohn-Sham eigenvalues and eigenfunctions.
  Solving real generalised eigenvalue problem by standard LAPACK (fast)
  Determining occupation numbers for Kohn-Sham eigenstates.
  | Chemical potential (Fermi level) for spin channel 1 in eV               :    1.2915653142
  | Error in electron count due to remaining E_F inaccuracy: 0.0000E+00
  | Maximum occupation number of highest empty state:  0.00E+00

  Determining occupation numbers for Kohn-Sham eigenstates.
  | Chemical potential (Fermi level) for spin channel 2 in eV               :   31.3220647888
  | Error in electron count due to remaining E_F inaccuracy: 0.0000E+00
  | Maximum occupation number of highest empty state:  0.00E+00

  Fixed spin moments - chemical potentials:
  | Chemical potential, spin up:    1.2915653142 eV.
  | Chemical potential, spin dn:   31.3220647888 eV.
  | Fixed spin moment: Difference in chemical potentials between spin channels: -30.0304994746 eV.

  Current spin moment of the entire structure :
  | N = N_up - N_down :    1.00
  | S                 :    0.50
  | J                 :    2.00

  Highest occupied state (VBM) at     -9.06254909 eV
  | Occupation number:      1.00000000
  | Spin channel:        1

  Lowest unoccupied state (CBM) at    11.64567972 eV
  | Occupation number:      0.00000000
  | Spin channel:        1

  Overall HOMO-LUMO gap:     20.70822881 eV.

  Total energy components:
  | Sum of eigenvalues            :          -0.33304256 Ha          -9.06254909 eV
  | XC energy correction          :          -0.15671581 Ha          -4.26445407 eV
  | XC potential correction       :           0.30086139 Ha           8.18685508 eV
  | Free-atom electrostatic energy:          -0.28981159 Ha          -7.88617464 eV
  | Hartree energy correction     :          -0.02158128 Ha          -0.58725655 eV
  | Entropy correction            :           0.00000000 Ha           0.00000000 eV
  | ---------------------------
  | Total energy                  :          -0.50028984 Ha         -13.61357926 eV
  | Total energy, T -> 0          :          -0.50028984 Ha         -13.61357926 eV  <-- do not rely on this value for anything but (periodic) metals
  | Electronic free energy        :          -0.50028984 Ha         -13.61357926 eV

  Derived energy quantities:
  | Kinetic energy                :           0.96254085 Ha          26.19206929 eV
  | Electrostatic energy          :          -0.68332892 Ha         -18.59432608 eV
  | Energy correction for multipole
  | error in Hartree potential    :           0.00000000 Ha           0.00000000 eV
  | Sum of eigenvalues per atom                           :          -9.06254909 eV
  | Total energy (T->0) per atom                          :         -13.61357926 eV  <-- do not rely on this value for anything but (periodic) metals
  | Electronic free energy per atom                       :         -13.61357926 eV

  Self-consistency convergence accuracy:
  | Change of charge/spin density : 0.1384E-05 0.1384E-05
  | Change of sum of eigenvalues  : 0.1581E-04 eV
  | Change of total energy        : -.3101E-05 eV

  End self-consistency iteration #     7       :  max(cpu_time)    wall_clock(cpu1)
  | Time for this iteration                    :        0.084 s           0.082 s
  | Charge density update                      :        0.020 s           0.018 s
  | Density mixing                             :        0.016 s           0.014 s
  | Hartree multipole update                   :        0.004 s           0.003 s
  | Hartree multipole summation                :        0.008 s           0.007 s
  | Integration                                :        0.040 s           0.039 s
  | Fock matrix evaluation                     :        0.000 s           0.000 s
  | Solution of K.-S. eqns.                    :        0.004 s           0.000 s
  | Total energy evaluation                    :        0.000 s           0.000 s
------------------------------------------------------------

------------------------------------------------------------
          Begin self-consistency iteration #    8

  Date     :  20130425, Time     :  105615.931
------------------------------------------------------------
  Evaluating new KS density.
  Integration grid: deviation in total charge (<rho> - N_e) =  -7.438494E-15
  | <rho_up-rho_dn> = N_up-N_dn =      1.0000; <|rho_up-rho_dn|> =      1.0000
  Pulay mixing of updated and previous charge densities.
  * Rank deficiency in solve_pulay; rank =     3; saved_iter =     7

  Evaluating partitioned Hartree potential by multipole expansion.
  | Analytical far-field extrapolation by fixed multipoles:
  | Hartree multipole sum: apparent total charge =  -0.513620E-07
  Summing up the Hartree potential.
  Time summed over all CPUs for potential: real work        0.014 s, elapsed        0.014 s
  | RMS charge density error from multipole expansion :   0.181623E-15

  Integrating Hamiltonian matrix: batch-based integration.
  Time summed over all CPUs for integration: real work        0.083 s, elapsed        0.090 s
  Evaluating the exchange matrix ... 

  Updating Kohn-Sham eigenvalues, eigenvectors, occupation numbers, and Fermi level.
  Solving generalized eigenproblem
  Updating Kohn-Sham eigenvalues and eigenfunctions.
  Solving real generalised eigenvalue problem by standard LAPACK (fast)
  Updating Kohn-Sham eigenvalues and eigenfunctions.
  Solving real generalised eigenvalue problem by standard LAPACK (fast)
  Determining occupation numbers for Kohn-Sham eigenstates.
  | Chemical potential (Fermi level) for spin channel 1 in eV               :    1.2915685427
  | Error in electron count due to remaining E_F inaccuracy: 0.0000E+00
  | Maximum occupation number of highest empty state:  0.00E+00

  Determining occupation numbers for Kohn-Sham eigenstates.
  | Chemical potential (Fermi level) for spin channel 2 in eV               :   31.3220668828
  | Error in electron count due to remaining E_F inaccuracy: 0.0000E+00
  | Maximum occupation number of highest empty state:  0.00E+00

  Fixed spin moments - chemical potentials:
  | Chemical potential, spin up:    1.2915685427 eV.
  | Chemical potential, spin dn:   31.3220668828 eV.
  | Fixed spin moment: Difference in chemical potentials between spin channels: -30.0304983401 eV.

  Current spin moment of the entire structure :
  | N = N_up - N_down :    1.00
  | S                 :    0.50
  | J                 :    2.00

  Highest occupied state (VBM) at     -9.06254527 eV
  | Occupation number:      1.00000000
  | Spin channel:        1

  Lowest unoccupied state (CBM) at    11.64568235 eV
  | Occupation number:      0.00000000
  | Spin channel:        1

  Overall HOMO-LUMO gap:     20.70822762 eV.

  Total energy components:
  | Sum of eigenvalues            :          -0.33304242 Ha          -9.06254527 eV
  | XC energy correction          :          -0.15671596 Ha          -4.26445813 eV
  | XC potential correction       :           0.30086163 Ha           8.18686163 eV
  | Free-atom electrostatic energy:          -0.28981159 Ha          -7.88617464 eV
  | Hartree energy correction     :          -0.02158154 Ha          -0.58726349 eV
  | Entropy correction            :           0.00000000 Ha           0.00000000 eV
  | ---------------------------
  | Total energy                  :          -0.50028987 Ha         -13.61357989 eV
  | Total energy, T -> 0          :          -0.50028987 Ha         -13.61357989 eV  <-- do not rely on this value for anything but (periodic) metals
  | Electronic free energy        :          -0.50028987 Ha         -13.61357989 eV

  Derived energy quantities:
  | Kinetic energy                :           0.96254184 Ha          26.19209600 eV
  | Electrostatic energy          :          -0.68332947 Ha         -18.59434085 eV
  | Energy correction for multipole
  | error in Hartree potential    :           0.00000000 Ha           0.00000000 eV
  | Sum of eigenvalues per atom                           :          -9.06254527 eV
  | Total energy (T->0) per atom                          :         -13.61357989 eV  <-- do not rely on this value for anything but (periodic) metals
  | Electronic free energy per atom                       :         -13.61357989 eV

  Self-consistency convergence accuracy:
  | Change of charge/spin density : 0.3066E-06 0.3066E-06
  | Change of sum of eigenvalues  : 0.3822E-05 eV
  | Change of total energy        : -.6275E-06 eV

  Writing Kohn-Sham eigenvalues.

  Spin-up eigenvalues:

  State    Occupation    Eigenvalue [Ha]    Eigenvalue [eV]
      1       1.00000          -0.333042           -9.06255
      2       0.00000           0.427971           11.64568
      3       0.00000           1.218252           33.15032
      4       0.00000           1.218252           33.15032
      5       0.00000           1.218252           33.15032

  Spin-down eigenvalues:

  State    Occupation    Eigenvalue [Ha]    Eigenvalue [eV]
      1       0.00000           0.462144           12.57558
      2       0.00000           1.839985           50.06855
      3       0.00000           2.664330           72.50010
      4       0.00000           2.664330           72.50010
      5       0.00000           2.664330           72.50010

  Current spin moment of the entire structure :
  | N = N_up - N_down :    1.00
  | S                 :    0.50
  | J                 :    2.00

  Highest occupied state (VBM) at     -9.06254527 eV
  | Occupation number:      1.00000000
  | Spin channel:        1

  Lowest unoccupied state (CBM) at    11.64568235 eV
  | Occupation number:      0.00000000
  | Spin channel:        1

  Overall HOMO-LUMO gap:     20.70822762 eV.

  Self-consistency cycle converged.

  End self-consistency iteration #     8       :  max(cpu_time)    wall_clock(cpu1)
  | Time for this iteration                    :        0.092 s           0.090 s
  | Charge density update                      :        0.020 s           0.018 s
  | Density mixing                             :        0.016 s           0.015 s
  | Hartree multipole update                   :        0.004 s           0.003 s
  | Hartree multipole summation                :        0.008 s           0.007 s
  | Integration                                :        0.044 s           0.046 s
  | Fock matrix evaluation                     :        0.000 s           0.000 s
  | Solution of K.-S. eqns.                    :        0.000 s           0.000 s
  | Total energy evaluation                    :        0.000 s           0.000 s
------------------------------------------------------------
 
  Energy and forces in a compact form:
  | Total energy uncorrected      :         -0.136135798863927E+02 eV
  | Total energy corrected        :         -0.136135798863927E+02 eV  <-- do not rely on this value for anything but (periodic) metals
  | Electronic free energy        :         -0.136135798863927E+02 eV
 
  ------------------------------------ 
  Start decomposition of the XC Energy 
  ------------------------------------ 
  Hartree-Fock part   :          0.077848285 Ha              2.118359613 eV
  ------------------------------------ 
  X Energy            :         -0.150706965 Ha             -4.100945178 eV
  C Energy GGA        :         -0.006008990 Ha             -0.163512948 eV
  Total XC Energy     :         -0.156715956 Ha             -4.264458125 eV
  LDA X and C from self-consistent density 
  X Energy LDA        :         -0.267027623 Ha             -7.266191309 eV
  C Energy LDA        :         -0.022156889 Ha             -0.602919615 eV
  ------------------------------------ 
  End decomposition of the XC Energy 
  ------------------------------------ 
---------------------------------------------
---------------------------------------------
 | MP2 calculation starts ...
---------------------------------------------

  | Note : Resolution of identity applied 
  | Note : Spin-polarized system 
---------------------------------------------
  | Homo level                                        1           0
  | Lumo level                                        2           1
  | Total Number of states                            5
  | Number of k-points                                1
  | Homo-Lumo Gap of the spin up              0.76101338 Ha         20.70822762 eV
---------------------------------------------
  The first valence state in the frozen-core algorithm :           1
  Frozen core number for post-SCF calculation          :           0
  The ovlp_3KS matrix takes another      0 MiB x      2 procs =       0.000 GiB.

 
  Starts to calculate the exchange energy ...

---------------------------------------------
| Sum of correlation terms 
---------------------------------------------
  Screened coupling is invoked for CPT2 
  Initial energy       0.00000000, generated energy       0.00000000
 E_mp2_term  =  -1.780418952329962E-066 ; E_mp2  =  -1.780418952329962E-066
 E_iepa_term =  -1.780418952329962E-066 ; E_iepa =  -1.780418952329962E-066
  | Pair state     1                    :          0.00000000 eV          0.00000000 eV
  | Pair state     2                    :          0.00000000 eV          0.00000000 eV
---------------------------------------------
 
 
 
          ---------------------------------------------
          | MP2 calculation comes to finish ...  
 
          ---------------------------------------------
          | Total time for calculating MP2 correction              :        0.000 s

          ---------------------------------------------

---------------------------------------------
  | DFT Energy                      :         -0.50028987 Ha        -13.61357989 eV
  | DFT XC Energy                   :         -0.15671596 Ha         -4.26445813 eV
  | Exact Echange Energy            :         -0.31139317 Ha         -8.47343922 eV
  | MP2 correction                  :          0.00000000 Ha          0.00000000 eV

  | Total (DFT+MP2) Energy          :         -0.65496708 Ha        -17.82256099 eV
  | Coupled MP2 contribution        :          0.00000000 Ha          0.00000000 eV
  | Total coupled MP2 energy        :         -0.65496708 Ha        -17.82256099 eV
---------------------------------------------

------------------------------------------------------------------------------
  Final output of selected total energy values:

  The following output summarizes some interesting total energy values
  at the end of a run (AFTER all relaxation, molecular dynamics, etc.).

  | Total energy of the DFT / Hartree-Fock s.c.f. calculation      :            -13.613579886 eV
  | Final zero-broadening corrected energy (caution - metals only) :            -13.613579886 eV
  | Total energy after the post-s.c.f. correlation calculation     :            -17.822560985 eV
  | For reference only, the value of 1 Hartree used in FHI-aims is :             27.211384500 eV

  Before relying on these values, please be sure to understand exactly which
  total energy value is referred to by a given number. Different objects may
  all carry the same name 'total energy'. Definitions:

  Total energy of the DFT / Hartree-Fock s.c.f. calculation:
  | Note that this energy does not include ANY quantities calculated after the
  | s.c.f. cycle, in particular not ANY RPA, MP2, etc. many-body perturbation terms.

  Final zero-broadening corrected energy:
  | For metallic systems only, a broadening of the occupation numbers at the Fermi
  | level can be extrapolated back to zero broadening by an electron-gas inspired
  | formula. For all systems that are not real metals, this value can be
  | meaningless and should be avoided.

  Total energy of the post-s.c.f. correlation calculation        :
  | The actual meaning of this energy depends on the setting for the 'total_energy_method'
  | keyword (MP2, RPA, rPT2, etc). If not sure, compare to the results listed above.

------------------------------------------------------------------------------

------------------------------------------------------------
          Leaving FHI-aims.
          Date     :  20130425, Time     :  105616.051

          Computational steps:
          | Number of self-consistency cycles          :            8

          Detailed time accounting                     :  max(cpu_time)    wall_clock(cpu1)
          | Total time                                 :        1.020 s           1.021 s
          | Preparation time                           :        0.108 s           0.118 s
          | Grid partitioning                          :        0.048 s           0.047 s
          | Preloading free-atom quantities on grid    :        0.036 s           0.034 s
          | Free-atom superposition energy             :        0.020 s           0.020 s
          | Total time for integrations                :        0.372 s           0.361 s
          | Product basis setup: Total time            :        0.000 s           0.000 s
          | Product basis: | 3-center integrations     :        0.040 s           0.037 s
          | Product basis: | 2-center integrations     :        0.032 s           0.034 s
          | Product basis: | 2-center linear algebra   :        0.000 s           0.000 s
          | Product basis: | 3-center x 2-center       :        0.000 s           0.000 s
          | Total time evaluating exchange matrix      :        0.000 s           0.000 s
          | Transforming ovlp_3fn to ovlp_3KS          :        0.000 s           0.000 s
          | Total time for solution of K.-S. equations :        0.004 s           0.004 s
          | Total time for density update              :        0.160 s           0.147 s
          | Total time for mixing                      :        0.092 s           0.081 s
          | Total time for Hartree multipole update    :        0.024 s           0.020 s
          | Total time for Hartree multipole sum       :        0.060 s           0.060 s
          | Total time for total energy evaluation     :        0.000 s           0.000 s

          Have a nice day.
------------------------------------------------------------
