  MPI-parallelism will be employed.
------------------------------------------------------------
          Invoking FHI-aims ...
          Version 030113
          Git rev. (modified): f71f3b8 Merge branch master of fhiaims.rzberlin.mp[...]
          Compiled on 2013/04/24 at 20:31:34 on host theobook58.

          When using FHI-aims, please cite the following reference:

          Volker Blum, Ralf Gehrke, Felix Hanke, Paula Havu,
          Ville Havu, Xinguo Ren, Karsten Reuter, and Matthias Scheffler,
          'Ab Initio Molecular Simulations with Numeric Atom-Centered Orbitals: FHI-aims',
          Computer Physics Communications 180, 2175-2196 (2009)

          For any questions about FHI-aims, please visit the aimsclub website
          with its forums and wiki. Contributions to both the forums and the
          wiki are warmly encouraged - they are for you, and everyone is welcome there.

------------------------------------------------------------

  Date     :  20130425, Time     :  105618.971
  Time zero on CPU 1             :   0.160000000000000E-01  s.
  Internal wall clock time zero  :           136119378.971  s.

  Using        2 parallel tasks.
  Task        0 on host theobook58 reporting.
  Task        1 on host theobook58 reporting.

  Performing system and environment tests:
  | Environment variable OMP_NUM_THREADS correctly set to 1.
  | Checking for scalapack...
  | No scalapack compiled in.

  Obtaining array dimensions for all initial allocations:
  
  -----------------------------------------------------------------------
  Parsing control.in (first pass over file, find array dimensions only).
  The contents of control.in will be repeated verbatim below
  unless switched off by setting 'verbatim_writeout .false.' .
  in the first line of control.in .
  -----------------------------------------------------------------------
  
  xc                      pbe0
  total_energy_method     mp2
  frozen_core_postSCF     1
  relativistic            none
  occupation_type         integer 0.0001
  mixer                   pulay
  n_max_pulay             10
  charge_mix_param        0.6
  sc_accuracy_rho         1E-6
  sc_accuracy_eev         1E-4
  sc_accuracy_etot        1E-6
  sc_iter_limit           200
  charge                  0
  en_shift                           3
  coupling_pt2_factor       1.00000000
  coupling_pt2_screen       1.00000000
  coupling_pt2_shift        0.00000000
  ################################################################################
  #
  #  FHI-aims code project
  # Igor Ying Zhang and Xinguo Ren, Fritz Haber Institute Berlin, 2012
  #
  #  Suggested "cc-pVDZ" defaults for H atom (to be pasted into control.in file)
  #
  ################################################################################
    species        H
  #     global species definitions
      nucleus             1
      mass                1.00794
  #
      l_hartree           6
  #
      cut_pot             4.0  2.0  1.0
      basis_dep_cutoff    0e-0
  #
      radial_base         24 7.0
      radial_multiplier   6
      angular_grids       specified
        division   0.1930   50
        division   0.3175  110
        division   0.4293  194
        division   0.5066  302
        division   0.5626  434
  #      division   0.5922  590
  #      division   0.6227  974
  #      division   0.6868 1202
  #      outer_grid  770
        outer_grid  434
  ################################################################################
  #
  #  Definition of "minimal" basis
  #
  ################################################################################
  #     valence basis states
      valence      1  s   1.
  #     ion occupancy
      ion_occ      1  s   0.5
  ################################################################################
  #
  #   For exact comparison with all GTO-based codes, one or more of
  #   the following flags are needed:
  #
      include_min_basis   .false.
      pure_gauss          .true.
  #
  
  # H cc-pVDZ
   gaussian 0 3
        13.0100000            0.0196850
         1.9620000            0.1379770
         0.4446000            0.4781480
   gaussian 0 1 0.1220000
   gaussian 1 1 0.7270000
  
  -----------------------------------------------------------------------
  Completed first pass over input file control.in .
  -----------------------------------------------------------------------
  
  
  -----------------------------------------------------------------------
  Parsing geometry.in (first pass over file, find array dimensions only).
  The contents of geometry.in will be repeated verbatim below
  unless switched off by setting 'verbatim_writeout .false.' .
  in the first line of geometry.in .
  -----------------------------------------------------------------------
  
  atom             0.0             0.0             0.0    H
  atom             0.0             0.0            0.65    H
  
  -----------------------------------------------------------------------
  Completed first pass over input file geometry.in .
  -----------------------------------------------------------------------
  
 
  Basic array size parameters: 
  | Number of species                 :        1
  | Number of atoms                   :        2
  | Max. basis fn. angular momentum   :        1
  | Max. atomic/ionic basis occupied n:        1
  | Max. number of basis fn. types    :        1
  | Max. radial fns per species/type  :        3
  | Max. logarithmic grid size        :     1131
  | Max. radial integration grid size :      149
  | Max. angular integration grid size:      434
  | Max. angular grid division number :        8
  | Radial grid for Hartree potential :     1131
  | Number of spin channels           :        1

------------------------------------------------------------
          Reading file control.in.
------------------------------------------------------------
  XC: Using hybrid-PBE0 functionals.
  MP2 correlation energy calculation will be started after the DFT/HF calculation.
  Core electrons are frozen in the post-SCF calculation :     1
  Non-relativistic treatment of kinetic energy.
  Occupation type: Integer occupation.
  Using pulay charge density mixing.
  Pulay mixing - number of memorized iterations:   10
  Charge density mixing - mixing parameter:     0.6000
  Convergence accuracy of self-consistent charge density: 0.1000E-05
  Convergence accuracy of sum of eigenvalues: 0.1000E-03
  Convergence accuracy of total energy: 0.1000E-05
  Maximum number of s.-c. iterations  :   200
  Charge =   0.000000E+00: Neutral system requested explicitly.
  Energy shifting on the denominators:      3
  Coupling factor for PT2 on the denominators: ******
  Screening factor for coupling PT2: ******
  Shift for screening effect in coupling PT2:      0
 
  Reading configuration options for species H                   .
  | Found nuclear charge :   1.0000
  | Found atomic mass :    1.00794000000000      amu
  | Found l_max for Hartree potential  :   6
  | Found cutoff potl. onset [A], width [A], scale factor :    4.00000    2.00000    1.00000
  | Threshold for basis-dependent cutoff potential is   0.000000E+00
  | Found data for basic radial integration grid :    24 points, outermost radius =    7.000 A
  | Found multiplier for basic radial grid :   6
  | Found angular grid specification: user-specified.
  | Specified grid contains     6 separate shells.
  | Check grid settings after all constraints further below.
  | Found free-atom valence shell :  1 s   1.000
  | No ionic wave fns used. Skipping ion_occ.
  | Found request to include minimal basis fns. :     F
  | Found request to include pure gaussian fns. :     T
  | Found contracted cartesian Gaussian basis function :  L = 0 ,   3 elementary Gaussians:
  |   alpha = 0.130100E+02 weight = 0.196850E-01
  |   alpha = 0.196200E+01 weight = 0.137977E+00
  |   alpha = 0.444600E+00 weight = 0.478148E+00
  |   In terms of angular momentum, this radial function adds: 
  |     1 s-type basis function
  | Found primitive cartesian Gaussian basis function :  0 0.122000E+00
  |   In terms of angular momentum, this radial function adds: 
  |     1 s-type basis function
  | Found primitive cartesian Gaussian basis function :  1 0.727000E+00
  |   In terms of angular momentum, this radial function adds: 
  |     3 p-type basis functions
  Species H                   : Missing cutoff potential type.
  Defaulting to exp(1/x)/(1-x)^2 type cutoff potential.
  Species H : No 'logarithmic' tag. Using default grid for free atom:
  | Default logarithmic grid data [bohr] : 0.1000E-03 0.1000E+03 0.1012E+01
  Species H : On-site basis accuracy parameter (for Gram-Schmidt orthonormalisation) not specified.
  Using default value basis_acc =  0.1000000E-03.
  Species H                   : Using default innermost maximum threshold i_radial=  2 for radial functions.
  Species H                   : Default cutoff onset for free atom density etc. is infinite
  since the product basis is used (hybrid functionals, Hartree-Fock, GW etc.).
  Species H                   : Basic radial grid will be enhanced according to radial_multiplier =   6, to contain   149 grid points.
 
  Finished reading input file 'control.in'. Consistency checks are next.
 
  Species H: Using default value for prodbas_acc =   1.000000E-02.
  Species H: Using default value max_l_prodbas =     5.
  Target number of points in a grid batch is not set. Defaulting to  100
  Method for grid partitioning is not set. Defaulting to parallel hash+maxmin partitioning.
  Batch size limit is not set. Defaulting to    200
  By default, will store active basis functions for each batch.
  If in need of memory, prune_basis_once .false. can be used to disable this option.
  communication_type for Hartree potential was not specified.
  Defaulting to calc_hartree .
  Pulay mixer: Number of initial linear mixing iterations not set.
  Defaulting to    0 iterations.
  Work space size for distributed Hartree potential not set.
  Defaulting to   0.200000E+03 MB.
  Algorithm-dependent basis array size parameters:
  | n_max_pulay                         :       10
  Calculation of forces was not defined in control.in. No forces will be calculated.
  Geometry relaxation not requested: no relaxation will be performed.
  No accuracy limit for integral partition fn. given. Defaulting to 0.1000E-14.
  No threshold value for u(r) in integrations given. Defaulting to 0.1000E-05.
  No accuracy for occupation numbers given. Defaulting to 0.1000E-07.
  No threshold value for occupation numbers given. Defaulting to 0.0000E+00.
  No accuracy for fermi level given. Defaulting to 0.1000E-19.
  Maximum # of iterations to find E_F not set. Defaulting to  200.
  Preferred method for the eigenvalue solver ('KS_method') not specified in 'control.in'.
  Calling blacs routine to test compilation state
  The best choice would be 'elpa', but your version of FHI-aims is compiled without scalapack support.
  Defaulting to 'lapack_fast' instead (serial solution, time will not improve with more CPUs).
  Will not use alltoall communication since running on < 1024 CPUs.
  Threshold for basis singularities not set.
  Default threshold for basis singularities: 0.1000E-04
  partition_type (choice of integration weights) for integrals was not specified.
  | Using a version of the partition function of Stratmann and coworkers ('stratmann_smoother').
  | At each grid point, the set of atoms used to build the partition table is smoothly restricted to
  | only those atoms whose free-atom density would be non-zero at that grid point.
  Partitioning for Hartree potential was not defined. Using partition_type for integrals.
  | Adjusted default value of keyword multip_moments_threshold to:       0.10000000E-11
  | This value may affect high angular momentum components of the Hartree potential in periodic systems.
  Spin handling was not defined in control.in. Defaulting to unpolarized case.
  Threshold for auxiliary basis singularities not set.
  Default threshold for auxiliary basis singularities: 0.1000E-04
  * Doing correlated calculations, so all empty single-particle states will be included.
  No q(lm)/r^(l+1) cutoff set for long-range Hartree potential.
  | Using default value of  0.100000E-09 .
  | Verify using the multipole_threshold keyword.
  Defaulting to new monopole extrapolation.
  Density update method: automatic selection selected.
  Default to 1D ("use_logsbt") integrations for auxiliary 2-center integrals.
  Default onset of logarithmic r-grid for SBT is-38.000000000000
  Default onset of logarithmic k-grid for SBT is-25.000000000000
  Default range of logarithmic r- and k-grid for SBT is 45.000000000000
  Default number of logarithmic r- and k-grid for SBT is  4096
------------------------------------------------------------


------------------------------------------------------------
          Reading geometry description geometry.in.
------------------------------------------------------------
  Input structure read successfully.
  The structure contains        2 atoms,  and a total of          2.000 electrons.

  Input geometry:
  | No unit cell requested.
  | Atomic structure:
  |       Atom                x [A]            y [A]            z [A]
  |    1: Species H          0.000000         0.000000         0.000000
  |    2: Species H          0.000000         0.000000         0.650000
  |

  Structure-dependent array size parameters: 
  | Maximum number of distinct radial functions  :        3
  | Maximum number of basis functions            :       10
  | Number of Kohn-Sham states (occupied + empty):     2001
------------------------------------------------------------

------------------------------------------------------------
          Preparing all fixed parts of the calculation.
------------------------------------------------------------
  Determining machine precision:
    2.225073858507201E-308
  Setting up grids for atomic and cluster calculations.

  Creating wave function, potential, and density for free atoms.

  Species: H

  List of occupied orbitals and eigenvalues:
    n    l              occ      energy [Ha]    energy [eV]
    1    0           1.0000        -0.238600        -6.4926

  Creating fixed part of basis set: Ionic, confined, hydrogenic.
 
  H                    Gaussian:
 
  List of cartesian Gaussian basis orbitals: 
    L    l
    0    0
    0    0
    1    1
 

  Adding cutoff potential to free-atom effective potential.
  Creating atomic-like basis functions for current effective potential.
  Assembling full basis from fixed parts.
  | Species H : gaussian orbital   0 s accepted.
  | Species H : gaussian orbital   0 s accepted.
  | Species H : gaussian orbital   1 p accepted.

  * You requested     2001 Kohn-Sham states in the calculation,
  * but there are only       10 available basis states.
  * Reducing total number of  Kohn-Sham states to       10.
 
 
  Basis size parameters after reduction:
  | Total number of radial functions:        3
  | Total number of basis functions :       10
 
  Preparing densities etc. for the partition functions (integrals / Hartree potential).

  Preparations completed.
  max(cpu_time)          :      0.080 s.
  Wall clock time (cpu1) :      0.093 s.
------------------------------------------------------------

------------------------------------------------------------
          Begin self-consistency loop: Initialization.

          Date     :  20130425, Time     :  105619.067
------------------------------------------------------------

  Initializing index lists of integration centers etc. from given atomic structure:
  | Number of centers in hartree potential         :         2
  | Number of centers in hartree multipole         :         2
  | Number of centers in electron density summation:         2
  | Number of centers in basis integrals           :         2
  | Number of centers in integrals                 :         2
  Partitioning the integration grid into batches with parallel hashing+maxmin method.
  | Number of batches:      939
  | Maximal batch size:     176
  | Minimal batch size:      83
  | Average batch size:      93.721
  | Standard deviation of batch sizes:      24.683

  Integration load balanced across     2 MPI tasks.
  Work distribution over tasks is as follows:
  Task     0 has      44046 integration points.
  Task     1 has      43958 integration points.
  Initializing partition tables, free-atom densities, potentials, etc. across the integration grid (initialize_grid_storage).
  | Original list of interatomic distances with           2 x          2 entries is created.
  | Net number of integration points:    88004
  | of which are non-zero points    :    78934
  Obtaining max. number of non-zero basis functions in each batch (get_n_compute_maxes).
  | Maximal number of non-zero basis functions:       10 in task     0
  | Maximal number of non-zero basis functions:       10 in task     1
  Selecting the method for density update.
  Loop over occupied states selected for charge density update.
  Integrating Hamiltonian matrix: batch-based integration.
  Time summed over all CPUs for integration: real work        0.166 s, elapsed        0.167 s
  Integrating overlap matrix.
  Time summed over all CPUs for integration: real work        0.046 s, elapsed        0.047 s

  Updating Kohn-Sham eigenvalues, eigenvectors, occupation numbers, and Fermi level.
  Solving generalized eigenproblem
  Updating Kohn-Sham eigenvalues and eigenfunctions.
  Transforming overlap matrix and checking for singularities.
  Overlap matrix is nonsingular:
  | Lowest eigenvalue:  0.236672E-01
  Solving real generalised eigenvalue problem by standard LAPACK (fast)
  Determining occupation numbers for Kohn-Sham eigenstates.
  | Chemical potential (Fermi level) in eV                 : -.71690890E+01
  | Error in electron count due to remaining E_F inaccuracy: 0.00000000E+00
  | Maximum occupation number of highest empty state:  0.00E+00

  Writing Kohn-Sham eigenvalues.

  State    Occupation    Eigenvalue [Ha]    Eigenvalue [eV]
      1       2.00000          -0.541416          -14.73267
      2       0.00000           0.014497            0.39449
      3       0.00000           0.215015            5.85086
      4       0.00000           0.620695           16.88998
      5       0.00000           0.868513           23.63344
      6       0.00000           0.868513           23.63344
      7       0.00000           1.582322           43.05718
      8       0.00000           1.664779           45.30094
      9       0.00000           1.664779           45.30094
     10       0.00000           3.696482          100.58640

  Highest occupied state (VBM) at    -14.73267015 eV
  | Occupation number:      2.00000000

  Lowest unoccupied state (CBM) at     0.39449206 eV
  | Occupation number:      0.00000000

  Overall HOMO-LUMO gap:     15.12716221 eV.
  Calculating total energy contributions from superposition of free atom densities.

  Total energy components:
  | Sum of eigenvalues            :          -1.08283135 Ha         -29.46534029 eV
  | XC energy correction          :          -0.43825425 Ha         -11.92550486 eV
  | XC potential correction       :           0.56441790 Ha          15.35859246 eV
  | Free-atom electrostatic energy:          -0.26102610 Ha          -7.10288167 eV
  | Hartree energy correction     :           0.00000000 Ha           0.00000000 eV
  | Entropy correction            :           0.00000000 Ha           0.00000000 eV
  | ---------------------------
  | Total energy                  :          -1.21769381 Ha         -33.13513436 eV
  | Total energy, T -> 0          :          -1.21769381 Ha         -33.13513436 eV  <-- do not rely on this value for anything but (periodic) metals
  | Electronic free energy        :          -1.21769381 Ha         -33.13513436 eV

  Derived energy quantities:
  | Kinetic energy                :           0.48795262 Ha          13.27786644 eV
  | Electrostatic energy          :          -1.26739218 Ha         -34.48749594 eV
  | Energy correction for multipole
  | error in Hartree potential    :           0.00000000 Ha           0.00000000 eV
  | Sum of eigenvalues per atom                           :         -14.73267015 eV
  | Total energy (T->0) per atom                          :         -16.56756718 eV  <-- do not rely on this value for anything but (periodic) metals
  | Electronic free energy per atom                       :         -16.56756718 eV
 
 --------------------------------------------
  Constructing auxiliary basis (full product) ...
 
  Product basis:
  | charge radius: extent of product basis function
  | field radius: extent of its Coulomb potential
  | Species   l  charge radius    field radius  multipol momen
  |    H      1     3.215356 A      3.215356 A    5.5111E-17 a.u.
  |    H      0     3.815562 A      3.815562 A    7.3434E-17 a.u.
  |    H      0     5.781930 A      5.781930 A    3.3230E-16 a.u.
  |    H      2     2.517934 A    8.6084E+03 A      0.342576 a.u.
  |    H      1     3.254905 A    1.2873E+06 A      0.470947 a.u.
  |    H      0     5.711676 A    3.4615E+12 A      0.520541 a.u.

  | Shrink_full_auxil_basis : there are        6  radial auxiliary wave functions
                            accepted and       2 rejected.
  | Shrink_full_auxil_basis : there are totally      28 partial auxiliary wave functions.
 
  | Number of product basis functions per thread :    14
  | Minimal requirement for computer memories :           0.000 Gbs
 
  Basis pair condensation :        55  -->         55
 
 ----------------------------------------------------
  Integrating the 3-basis-function Coulomb matrix ...
  | i_atom:            1
  | i_atom:            2
  Integrating the Coulomb interaction matrix for auxiliary basis functions (by atoms)

  SBT integration errors (all should be 'small'):
  large logFT aliasing -> increase N/lnrange
  large SBT aliasing -> decrease lnk0 & increase lnk0+lnrange
  large SBT ringing -> decrease lnr0 & increase lnr0+lnrange
  |            El't  L: logFT-al.   small-k   large-k   small-r   large-r
  Atomic logSBT for 2-center Coulomb matrix    :  max(cpu_time)    wall_clock(cpu1)
  | Multiplication with kernel                 :        0.000 s           0.000 s
  | Main matrix multiplication                 :        0.000 s           0.000 s
  | Analytic angular integration               :        0.000 s           0.000 s
  | Kernel construction                        :        0.000 s           0.001 s
  | Overall 2-center overlap time              :        0.004 s           0.002 s

  Difference of Coulomb matrix to its transposed:  2.2204E-16
  Task     0: Eigenvalues of the Coulomb matrix range from    1.9996E+00 to    3.7996E-04.
  Task     0: Using       28   eigenvalues out of rank       28   Coulomb matrix (auxiliary basis).
 
  Multiplying V^-0.5 x ovlp_3fn (1d-scalapack)

  Initialize hartree_potential_storage
  Max. number of atoms included in rho_multipole:            2

  End scf initialization - timings             :  max(cpu_time)    wall_clock(cpu1)
  | Time for scf. initialization               :        0.504 s           0.497 s
  | Boundary condition initialization          :        0.000 s           0.000 s
  | Integration                                :        0.108 s           0.107 s
  | Solution of K.-S. eqns.                    :        0.000 s           0.001 s
  | Grid partitioning                          :        0.084 s           0.082 s
  | Preloading free-atom quantities on grid    :        0.036 s           0.033 s
  | Free-atom superposition energy             :        0.040 s           0.042 s
  | Total energy evaluation                    :        0.000 s           0.001 s
  | Product basis setup: Total time            :        0.200 s           0.197 s
  | Product basis: | 3-center integrations     :        0.156 s           0.156 s
  | Product basis: | 2-center integrations     :        0.036 s           0.035 s
  | Product basis: | 2-center linear algebra   :        0.004 s           0.001 s
  | Product basis: | 3-center x 2-center       :        0.000 s           0.000 s
------------------------------------------------------------

------------------------------------------------------------
          Begin self-consistency iteration #    1

  Date     :  20130425, Time     :  105619.564
------------------------------------------------------------
  Evaluating new KS density.
  Integration grid: deviation in total charge (<rho> - N_e) =   4.440892E-16
  Pulay mixing of updated and previous charge densities.

  Evaluating partitioned Hartree potential by multipole expansion.
  | Analytical far-field extrapolation by fixed multipoles:
  | Hartree multipole sum: apparent total charge =  -0.834906E-07
  Summing up the Hartree potential.
  Time summed over all CPUs for potential: real work        0.179 s, elapsed        0.179 s
  | RMS charge density error from multipole expansion :   0.123440E-02

  Integrating Hamiltonian matrix: batch-based integration.
  Time summed over all CPUs for integration: real work        0.167 s, elapsed        0.170 s
  Evaluating the exchange matrix ... 

  Updating Kohn-Sham eigenvalues, eigenvectors, occupation numbers, and Fermi level.
  Solving generalized eigenproblem
  Updating Kohn-Sham eigenvalues and eigenfunctions.
  Solving real generalised eigenvalue problem by standard LAPACK (fast)
  Determining occupation numbers for Kohn-Sham eigenstates.
  | Chemical potential (Fermi level) in eV                 : -.55458580E+01
  | Error in electron count due to remaining E_F inaccuracy: 0.00000000E+00
  | Maximum occupation number of highest empty state:  0.00E+00

  Writing Kohn-Sham eigenvalues.

  State    Occupation    Eigenvalue [Ha]    Eigenvalue [eV]
      1       2.00000          -0.503592          -13.70343
      2       0.00000           0.095979            2.61172
      3       0.00000           0.307057            8.35546
      4       0.00000           0.762678           20.75351
      5       0.00000           1.029952           28.02643
      6       0.00000           1.029952           28.02643
      7       0.00000           1.747131           47.54185
      8       0.00000           1.822043           49.58031
      9       0.00000           1.822043           49.58031
     10       0.00000           3.919622          106.65835

  Highest occupied state (VBM) at    -13.70343231 eV
  | Occupation number:      2.00000000

  Lowest unoccupied state (CBM) at     2.61171621 eV
  | Occupation number:      0.00000000

  Overall HOMO-LUMO gap:     16.31514852 eV.

  Total energy components:
  | Sum of eigenvalues            :          -1.00718376 Ha         -27.40686462 eV
  | XC energy correction          :          -0.33667646 Ha          -9.16143255 eV
  | XC potential correction       :           0.66977636 Ha          18.22554203 eV
  | Free-atom electrostatic energy:          -0.26102610 Ha          -7.10288167 eV
  | Hartree energy correction     :          -0.22030756 Ha          -5.99487370 eV
  | Entropy correction            :           0.00000000 Ha           0.00000000 eV
  | ---------------------------
  | Total energy                  :          -1.15541752 Ha         -31.44051052 eV
  | Total energy, T -> 0          :          -1.15541752 Ha         -31.44051052 eV  <-- do not rely on this value for anything but (periodic) metals
  | Electronic free energy        :          -1.15541752 Ha         -31.44051052 eV

  Derived energy quantities:
  | Kinetic energy                :           2.20058866 Ha          59.88106405 eV
  | Electrostatic energy          :          -1.54871089 Ha         -42.14256754 eV
  | Energy correction for multipole
  | error in Hartree potential    :           0.00000104 Ha           0.00002821 eV
  | Sum of eigenvalues per atom                           :         -13.70343231 eV
  | Total energy (T->0) per atom                          :         -15.72025526 eV  <-- do not rely on this value for anything but (periodic) metals
  | Electronic free energy per atom                       :         -15.72025526 eV

  Self-consistency convergence accuracy:
  | Change of charge density      : 0.1856E+00
  | Change of sum of eigenvalues  : 0.2058E+01 eV
  | Change of total energy        : 0.1695E+01 eV

  End self-consistency iteration #     1       :  max(cpu_time)    wall_clock(cpu1)
  | Time for this iteration                    :        0.240 s           0.237 s
  | Charge density update                      :        0.052 s           0.052 s
  | Density mixing                             :        0.004 s           0.003 s
  | Hartree multipole update                   :        0.008 s           0.006 s
  | Hartree multipole summation                :        0.092 s           0.090 s
  | Integration                                :        0.088 s           0.085 s
  | Fock matrix evaluation                     :        0.000 s           0.000 s
  | Solution of K.-S. eqns.                    :        0.000 s           0.001 s
  | Total energy evaluation                    :        0.000 s           0.000 s
------------------------------------------------------------

------------------------------------------------------------
          Begin self-consistency iteration #    2

  Date     :  20130425, Time     :  105619.801
------------------------------------------------------------
  Evaluating new KS density.
  Integration grid: deviation in total charge (<rho> - N_e) =   6.217249E-15
  Pulay mixing of updated and previous charge densities.

  Evaluating partitioned Hartree potential by multipole expansion.
  | Analytical far-field extrapolation by fixed multipoles:
  | Hartree multipole sum: apparent total charge =  -0.105818E-06
  Summing up the Hartree potential.
  Time summed over all CPUs for potential: real work        0.179 s, elapsed        0.179 s
  | RMS charge density error from multipole expansion :   0.176311E-02

  Integrating Hamiltonian matrix: batch-based integration.
  Time summed over all CPUs for integration: real work        0.167 s, elapsed        0.169 s
  Evaluating the exchange matrix ... 

  Updating Kohn-Sham eigenvalues, eigenvectors, occupation numbers, and Fermi level.
  Solving generalized eigenproblem
  Updating Kohn-Sham eigenvalues and eigenfunctions.
  Solving real generalised eigenvalue problem by standard LAPACK (fast)
  Determining occupation numbers for Kohn-Sham eigenstates.
  | Chemical potential (Fermi level) in eV                 : -.46065272E+01
  | Error in electron count due to remaining E_F inaccuracy: 0.00000000E+00
  | Maximum occupation number of highest empty state:  0.00E+00

  Highest occupied state (VBM) at    -12.31538654 eV
  | Occupation number:      2.00000000

  Lowest unoccupied state (CBM) at     3.10233216 eV
  | Occupation number:      0.00000000

  Overall HOMO-LUMO gap:     15.41771870 eV.

  Total energy components:
  | Sum of eigenvalues            :          -0.90516427 Ha         -24.63077307 eV
  | XC energy correction          :          -0.38033258 Ha         -10.34937607 eV
  | XC potential correction       :           0.71919455 Ha          19.57027939 eV
  | Free-atom electrostatic energy:          -0.26102610 Ha          -7.10288167 eV
  | Hartree energy correction     :          -0.32607896 Ha          -8.87306007 eV
  | Entropy correction            :           0.00000000 Ha           0.00000000 eV
  | ---------------------------
  | Total energy                  :          -1.15340737 Ha         -31.38581150 eV
  | Total energy, T -> 0          :          -1.15340737 Ha         -31.38581150 eV  <-- do not rely on this value for anything but (periodic) metals
  | Electronic free energy        :          -1.15340737 Ha         -31.38581150 eV

  Derived energy quantities:
  | Kinetic energy                :           2.29449072 Ha          62.43626924 eV
  | Electrostatic energy          :          -1.64057987 Ha         -44.64244971 eV
  | Energy correction for multipole
  | error in Hartree potential    :           0.00002076 Ha           0.00056501 eV
  | Sum of eigenvalues per atom                           :         -12.31538654 eV
  | Total energy (T->0) per atom                          :         -15.69290575 eV  <-- do not rely on this value for anything but (periodic) metals
  | Electronic free energy per atom                       :         -15.69290575 eV

  Self-consistency convergence accuracy:
  | Change of charge density      : 0.5234E-01
  | Change of sum of eigenvalues  : 0.2776E+01 eV
  | Change of total energy        : 0.5470E-01 eV

  End self-consistency iteration #     2       :  max(cpu_time)    wall_clock(cpu1)
  | Time for this iteration                    :        0.236 s           0.234 s
  | Charge density update                      :        0.048 s           0.048 s
  | Density mixing                             :        0.004 s           0.005 s
  | Hartree multipole update                   :        0.008 s           0.006 s
  | Hartree multipole summation                :        0.092 s           0.090 s
  | Integration                                :        0.084 s           0.084 s
  | Fock matrix evaluation                     :        0.000 s           0.000 s
  | Solution of K.-S. eqns.                    :        0.004 s           0.001 s
  | Total energy evaluation                    :        0.000 s           0.000 s
------------------------------------------------------------

------------------------------------------------------------
          Begin self-consistency iteration #    3

  Date     :  20130425, Time     :  105620.035
------------------------------------------------------------
  Evaluating new KS density.
  Integration grid: deviation in total charge (<rho> - N_e) =  -6.661338E-15
  Pulay mixing of updated and previous charge densities.

  Evaluating partitioned Hartree potential by multipole expansion.
  | Analytical far-field extrapolation by fixed multipoles:
  | Hartree multipole sum: apparent total charge =  -0.914565E-07
  Summing up the Hartree potential.
  Time summed over all CPUs for potential: real work        0.179 s, elapsed        0.179 s
  | RMS charge density error from multipole expansion :   0.163632E-02

  Integrating Hamiltonian matrix: batch-based integration.
  Time summed over all CPUs for integration: real work        0.167 s, elapsed        0.169 s
  Evaluating the exchange matrix ... 

  Updating Kohn-Sham eigenvalues, eigenvectors, occupation numbers, and Fermi level.
  Solving generalized eigenproblem
  Updating Kohn-Sham eigenvalues and eigenfunctions.
  Solving real generalised eigenvalue problem by standard LAPACK (fast)
  Determining occupation numbers for Kohn-Sham eigenstates.
  | Chemical potential (Fermi level) in eV                 : -.48175839E+01
  | Error in electron count due to remaining E_F inaccuracy: 0.00000000E+00
  | Maximum occupation number of highest empty state:  0.00E+00

  Highest occupied state (VBM) at    -12.60349880 eV
  | Occupation number:      2.00000000

  Lowest unoccupied state (CBM) at     2.96833105 eV
  | Occupation number:      0.00000000

  Overall HOMO-LUMO gap:     15.57182984 eV.

  Total energy components:
  | Sum of eigenvalues            :          -0.92634013 Ha         -25.20699759 eV
  | XC energy correction          :          -0.37430619 Ha         -10.18538967 eV
  | XC potential correction       :           0.70432952 Ha          19.16578146 eV
  | Free-atom electrostatic energy:          -0.26102610 Ha          -7.10288167 eV
  | Hartree energy correction     :          -0.29551041 Ha          -8.04124743 eV
  | Entropy correction            :           0.00000000 Ha           0.00000000 eV
  | ---------------------------
  | Total energy                  :          -1.15285332 Ha         -31.37073490 eV
  | Total energy, T -> 0          :          -1.15285332 Ha         -31.37073490 eV  <-- do not rely on this value for anything but (periodic) metals
  | Electronic free energy        :          -1.15285332 Ha         -31.37073490 eV

  Derived energy quantities:
  | Kinetic energy                :           2.20576113 Ha          60.02181418 eV
  | Electrostatic energy          :          -1.60194054 Ha         -43.59101986 eV
  | Energy correction for multipole
  | error in Hartree potential    :           0.00004000 Ha           0.00108850 eV
  | Sum of eigenvalues per atom                           :         -12.60349880 eV
  | Total energy (T->0) per atom                          :         -15.68536745 eV  <-- do not rely on this value for anything but (periodic) metals
  | Electronic free energy per atom                       :         -15.68536745 eV

  Self-consistency convergence accuracy:
  | Change of charge density      : 0.9969E-02
  | Change of sum of eigenvalues  : -.5762E+00 eV
  | Change of total energy        : 0.1508E-01 eV

  End self-consistency iteration #     3       :  max(cpu_time)    wall_clock(cpu1)
  | Time for this iteration                    :        0.240 s           0.238 s
  | Charge density update                      :        0.048 s           0.048 s
  | Density mixing                             :        0.008 s           0.010 s
  | Hartree multipole update                   :        0.008 s           0.005 s
  | Hartree multipole summation                :        0.092 s           0.090 s
  | Integration                                :        0.084 s           0.085 s
  | Fock matrix evaluation                     :        0.000 s           0.000 s
  | Solution of K.-S. eqns.                    :        0.000 s           0.000 s
  | Total energy evaluation                    :        0.000 s           0.000 s
------------------------------------------------------------

------------------------------------------------------------
          Begin self-consistency iteration #    4

  Date     :  20130425, Time     :  105620.274
------------------------------------------------------------
  Evaluating new KS density.
  Integration grid: deviation in total charge (<rho> - N_e) =  -9.769963E-15
  Pulay mixing of updated and previous charge densities.

  Evaluating partitioned Hartree potential by multipole expansion.
  | Analytical far-field extrapolation by fixed multipoles:
  | Hartree multipole sum: apparent total charge =  -0.930232E-07
  Summing up the Hartree potential.
  Time summed over all CPUs for potential: real work        0.179 s, elapsed        0.179 s
  | RMS charge density error from multipole expansion :   0.169087E-02

  Integrating Hamiltonian matrix: batch-based integration.
  Time summed over all CPUs for integration: real work        0.167 s, elapsed        0.169 s
  Evaluating the exchange matrix ... 

  Updating Kohn-Sham eigenvalues, eigenvectors, occupation numbers, and Fermi level.
  Solving generalized eigenproblem
  Updating Kohn-Sham eigenvalues and eigenfunctions.
  Solving real generalised eigenvalue problem by standard LAPACK (fast)
  Determining occupation numbers for Kohn-Sham eigenstates.
  | Chemical potential (Fermi level) in eV                 : -.47232532E+01
  | Error in electron count due to remaining E_F inaccuracy: 0.00000000E+00
  | Maximum occupation number of highest empty state:  0.00E+00

  Highest occupied state (VBM) at    -12.46880793 eV
  | Occupation number:      2.00000000

  Lowest unoccupied state (CBM) at     3.02230153 eV
  | Occupation number:      0.00000000

  Overall HOMO-LUMO gap:     15.49110946 eV.

  Total energy components:
  | Sum of eigenvalues            :          -0.91644054 Ha         -24.93761586 eV
  | XC energy correction          :          -0.37825696 Ha         -10.29289570 eV
  | XC potential correction       :           0.70974359 Ha          19.31310568 eV
  | Free-atom electrostatic energy:          -0.26102610 Ha          -7.10288167 eV
  | Hartree energy correction     :          -0.30698089 Ha          -8.35337507 eV
  | Entropy correction            :           0.00000000 Ha           0.00000000 eV
  | ---------------------------
  | Total energy                  :          -1.15296091 Ha         -31.37366262 eV
  | Total energy, T -> 0          :          -1.15296091 Ha         -31.37366262 eV  <-- do not rely on this value for anything but (periodic) metals
  | Electronic free energy        :          -1.15296091 Ha         -31.37366262 eV

  Derived energy quantities:
  | Kinetic energy                :           2.22269951 Ha          60.48273104 eV
  | Electrostatic energy          :          -1.61306035 Ha         -43.89360544 eV
  | Energy correction for multipole
  | error in Hartree potential    :           0.00003941 Ha           0.00107242 eV
  | Sum of eigenvalues per atom                           :         -12.46880793 eV
  | Total energy (T->0) per atom                          :         -15.68683131 eV  <-- do not rely on this value for anything but (periodic) metals
  | Electronic free energy per atom                       :         -15.68683131 eV

  Self-consistency convergence accuracy:
  | Change of charge density      : 0.7093E-02
  | Change of sum of eigenvalues  : 0.2694E+00 eV
  | Change of total energy        : -.2928E-02 eV

  End self-consistency iteration #     4       :  max(cpu_time)    wall_clock(cpu1)
  | Time for this iteration                    :        0.240 s           0.238 s
  | Charge density update                      :        0.048 s           0.047 s
  | Density mixing                             :        0.012 s           0.011 s
  | Hartree multipole update                   :        0.004 s           0.005 s
  | Hartree multipole summation                :        0.092 s           0.090 s
  | Integration                                :        0.084 s           0.084 s
  | Fock matrix evaluation                     :        0.000 s           0.000 s
  | Solution of K.-S. eqns.                    :        0.000 s           0.000 s
  | Total energy evaluation                    :        0.000 s           0.000 s
------------------------------------------------------------

------------------------------------------------------------
          Begin self-consistency iteration #    5

  Date     :  20130425, Time     :  105620.512
------------------------------------------------------------
  Evaluating new KS density.
  Integration grid: deviation in total charge (<rho> - N_e) =  -1.953993E-14
  Pulay mixing of updated and previous charge densities.

  Evaluating partitioned Hartree potential by multipole expansion.
  | Analytical far-field extrapolation by fixed multipoles:
  | Hartree multipole sum: apparent total charge =  -0.929345E-07
  Summing up the Hartree potential.
  Time summed over all CPUs for potential: real work        0.179 s, elapsed        0.180 s
  | RMS charge density error from multipole expansion :   0.170888E-02

  Integrating Hamiltonian matrix: batch-based integration.
  Time summed over all CPUs for integration: real work        0.167 s, elapsed        0.169 s
  Evaluating the exchange matrix ... 

  Updating Kohn-Sham eigenvalues, eigenvectors, occupation numbers, and Fermi level.
  Solving generalized eigenproblem
  Updating Kohn-Sham eigenvalues and eigenfunctions.
  Solving real generalised eigenvalue problem by standard LAPACK (fast)
  Determining occupation numbers for Kohn-Sham eigenstates.
  | Chemical potential (Fermi level) in eV                 : -.47003976E+01
  | Error in electron count due to remaining E_F inaccuracy: 0.00000000E+00
  | Maximum occupation number of highest empty state:  0.00E+00

  Highest occupied state (VBM) at    -12.43597268 eV
  | Occupation number:      2.00000000

  Lowest unoccupied state (CBM) at     3.03517743 eV
  | Occupation number:      0.00000000

  Overall HOMO-LUMO gap:     15.47115011 eV.

  Total energy components:
  | Sum of eigenvalues            :          -0.91402719 Ha         -24.87194536 eV
  | XC energy correction          :          -0.37941188 Ha         -10.32432251 eV
  | XC potential correction       :           0.71116251 Ha          19.35171648 eV
  | Free-atom electrostatic energy:          -0.26102610 Ha          -7.10288167 eV
  | Hartree energy correction     :          -0.30997404 Ha          -8.43482269 eV
  | Entropy correction            :           0.00000000 Ha           0.00000000 eV
  | ---------------------------
  | Total energy                  :          -1.15327670 Ha         -31.38225575 eV
  | Total energy, T -> 0          :          -1.15327670 Ha         -31.38225575 eV  <-- do not rely on this value for anything but (periodic) metals
  | Electronic free energy        :          -1.15327670 Ha         -31.38225575 eV

  Derived energy quantities:
  | Kinetic energy                :           2.22650057 Ha          60.58616311 eV
  | Electrostatic energy          :          -1.61640458 Ha         -43.98460655 eV
  | Energy correction for multipole
  | error in Hartree potential    :           0.00003903 Ha           0.00106206 eV
  | Sum of eigenvalues per atom                           :         -12.43597268 eV
  | Total energy (T->0) per atom                          :         -15.69112788 eV  <-- do not rely on this value for anything but (periodic) metals
  | Electronic free energy per atom                       :         -15.69112788 eV

  Self-consistency convergence accuracy:
  | Change of charge density      : 0.5833E-03
  | Change of sum of eigenvalues  : 0.6567E-01 eV
  | Change of total energy        : -.8593E-02 eV

  End self-consistency iteration #     5       :  max(cpu_time)    wall_clock(cpu1)
  | Time for this iteration                    :        0.240 s           0.241 s
  | Charge density update                      :        0.048 s           0.048 s
  | Density mixing                             :        0.012 s           0.012 s
  | Hartree multipole update                   :        0.004 s           0.005 s
  | Hartree multipole summation                :        0.092 s           0.091 s
  | Integration                                :        0.084 s           0.084 s
  | Fock matrix evaluation                     :        0.000 s           0.000 s
  | Solution of K.-S. eqns.                    :        0.000 s           0.001 s
  | Total energy evaluation                    :        0.000 s           0.000 s
------------------------------------------------------------

------------------------------------------------------------
          Begin self-consistency iteration #    6

  Date     :  20130425, Time     :  105620.753
------------------------------------------------------------
  Evaluating new KS density.
  Integration grid: deviation in total charge (<rho> - N_e) =  -3.108624E-15
  Pulay mixing of updated and previous charge densities.

  Evaluating partitioned Hartree potential by multipole expansion.
  | Analytical far-field extrapolation by fixed multipoles:
  | Hartree multipole sum: apparent total charge =  -0.930493E-07
  Summing up the Hartree potential.
  Time summed over all CPUs for potential: real work        0.179 s, elapsed        0.179 s
  | RMS charge density error from multipole expansion :   0.169628E-02

  Integrating Hamiltonian matrix: batch-based integration.
  Time summed over all CPUs for integration: real work        0.164 s, elapsed        0.166 s
  Evaluating the exchange matrix ... 

  Updating Kohn-Sham eigenvalues, eigenvectors, occupation numbers, and Fermi level.
  Solving generalized eigenproblem
  Updating Kohn-Sham eigenvalues and eigenfunctions.
  Solving real generalised eigenvalue problem by standard LAPACK (fast)
  Determining occupation numbers for Kohn-Sham eigenstates.
  | Chemical potential (Fermi level) in eV                 : -.47155804E+01
  | Error in electron count due to remaining E_F inaccuracy: 0.00000000E+00
  | Maximum occupation number of highest empty state:  0.00E+00

  Highest occupied state (VBM) at    -12.45783282 eV
  | Occupation number:      2.00000000

  Lowest unoccupied state (CBM) at     3.02667198 eV
  | Occupation number:      0.00000000

  Overall HOMO-LUMO gap:     15.48450480 eV.

  Total energy components:
  | Sum of eigenvalues            :          -0.91563388 Ha         -24.91566563 eV
  | XC energy correction          :          -0.37879184 Ha         -10.30745032 eV
  | XC potential correction       :           0.71020756 Ha          19.32573105 eV
  | Free-atom electrostatic energy:          -0.26102610 Ha          -7.10288167 eV
  | Hartree energy correction     :          -0.30796094 Ha          -8.38004349 eV
  | Entropy correction            :           0.00000000 Ha           0.00000000 eV
  | ---------------------------
  | Total energy                  :          -1.15320520 Ha         -31.38031006 eV
  | Total energy, T -> 0          :          -1.15320520 Ha         -31.38031006 eV  <-- do not rely on this value for anything but (periodic) metals
  | Electronic free energy        :          -1.15320520 Ha         -31.38031006 eV

  Derived energy quantities:
  | Kinetic energy                :           2.22264290 Ha          60.48119043 eV
  | Electrostatic energy          :          -1.61410275 Ha         -43.92197055 eV
  | Energy correction for multipole
  | error in Hartree potential    :           0.00003931 Ha           0.00106957 eV
  | Sum of eigenvalues per atom                           :         -12.45783282 eV
  | Total energy (T->0) per atom                          :         -15.69015503 eV  <-- do not rely on this value for anything but (periodic) metals
  | Electronic free energy per atom                       :         -15.69015503 eV

  Self-consistency convergence accuracy:
  | Change of charge density      : 0.1259E-02
  | Change of sum of eigenvalues  : -.4372E-01 eV
  | Change of total energy        : 0.1946E-02 eV

  End self-consistency iteration #     6       :  max(cpu_time)    wall_clock(cpu1)
  | Time for this iteration                    :        0.240 s           0.240 s
  | Charge density update                      :        0.048 s           0.048 s
  | Density mixing                             :        0.012 s           0.013 s
  | Hartree multipole update                   :        0.008 s           0.005 s
  | Hartree multipole summation                :        0.088 s           0.090 s
  | Integration                                :        0.084 s           0.083 s
  | Fock matrix evaluation                     :        0.000 s           0.000 s
  | Solution of K.-S. eqns.                    :        0.000 s           0.000 s
  | Total energy evaluation                    :        0.000 s           0.000 s
------------------------------------------------------------

------------------------------------------------------------
          Begin self-consistency iteration #    7

  Date     :  20130425, Time     :  105620.994
------------------------------------------------------------
  Evaluating new KS density.
  Integration grid: deviation in total charge (<rho> - N_e) =   8.881784E-16
  Pulay mixing of updated and previous charge densities.
  * Rank deficiency in solve_pulay; rank =     5; saved_iter =     6

  Evaluating partitioned Hartree potential by multipole expansion.
  | Analytical far-field extrapolation by fixed multipoles:
  | Hartree multipole sum: apparent total charge =  -0.930493E-07
  Summing up the Hartree potential.
  Time summed over all CPUs for potential: real work        0.179 s, elapsed        0.180 s
  | RMS charge density error from multipole expansion :   0.169628E-02

  Integrating Hamiltonian matrix: batch-based integration.
  Time summed over all CPUs for integration: real work        0.164 s, elapsed        0.167 s
  Evaluating the exchange matrix ... 

  Updating Kohn-Sham eigenvalues, eigenvectors, occupation numbers, and Fermi level.
  Solving generalized eigenproblem
  Updating Kohn-Sham eigenvalues and eigenfunctions.
  Solving real generalised eigenvalue problem by standard LAPACK (fast)
  Determining occupation numbers for Kohn-Sham eigenstates.
  | Chemical potential (Fermi level) in eV                 : -.47155736E+01
  | Error in electron count due to remaining E_F inaccuracy: 0.00000000E+00
  | Maximum occupation number of highest empty state:  0.00E+00

  Highest occupied state (VBM) at    -12.45782544 eV
  | Occupation number:      2.00000000

  Lowest unoccupied state (CBM) at     3.02667822 eV
  | Occupation number:      0.00000000

  Overall HOMO-LUMO gap:     15.48450366 eV.

  Total energy components:
  | Sum of eigenvalues            :          -0.91563334 Ha         -24.91565089 eV
  | XC energy correction          :          -0.37877551 Ha         -10.30700610 eV
  | XC potential correction       :           0.71020804 Ha          19.32574396 eV
  | Free-atom electrostatic energy:          -0.26102610 Ha          -7.10288167 eV
  | Hartree energy correction     :          -0.30796193 Ha          -8.38007058 eV
  | Entropy correction            :           0.00000000 Ha           0.00000000 eV
  | ---------------------------
  | Total energy                  :          -1.15318885 Ha         -31.37986528 eV
  | Total energy, T -> 0          :          -1.15318885 Ha         -31.37986528 eV  <-- do not rely on this value for anything but (periodic) metals
  | Electronic free energy        :          -1.15318885 Ha         -31.37986528 eV

  Derived energy quantities:
  | Kinetic energy                :           2.22277698 Ha          60.48483919 eV
  | Electrostatic energy          :          -1.61410334 Ha         -43.92198655 eV
  | Energy correction for multipole
  | error in Hartree potential    :           0.00003931 Ha           0.00106958 eV
  | Sum of eigenvalues per atom                           :         -12.45782544 eV
  | Total energy (T->0) per atom                          :         -15.68993264 eV  <-- do not rely on this value for anything but (periodic) metals
  | Electronic free energy per atom                       :         -15.68993264 eV

  Self-consistency convergence accuracy:
  | Change of charge density      : 0.7493E-06
  | Change of sum of eigenvalues  : 0.1474E-04 eV
  | Change of total energy        : 0.4448E-03 eV

  End self-consistency iteration #     7       :  max(cpu_time)    wall_clock(cpu1)
  | Time for this iteration                    :        0.244 s           0.242 s
  | Charge density update                      :        0.048 s           0.047 s
  | Density mixing                             :        0.016 s           0.016 s
  | Hartree multipole update                   :        0.004 s           0.005 s
  | Hartree multipole summation                :        0.092 s           0.090 s
  | Integration                                :        0.084 s           0.083 s
  | Fock matrix evaluation                     :        0.000 s           0.001 s
  | Solution of K.-S. eqns.                    :        0.004 s           0.000 s
  | Total energy evaluation                    :        0.000 s           0.000 s
------------------------------------------------------------

------------------------------------------------------------
          Begin self-consistency iteration #    8

  Date     :  20130425, Time     :  105621.236
------------------------------------------------------------
  Evaluating new KS density.
  Integration grid: deviation in total charge (<rho> - N_e) =  -1.554312E-14
  Pulay mixing of updated and previous charge densities.
  * Rank deficiency in solve_pulay; rank =     6; saved_iter =     7

  Evaluating partitioned Hartree potential by multipole expansion.
  | Analytical far-field extrapolation by fixed multipoles:
  | Hartree multipole sum: apparent total charge =  -0.930493E-07
  Summing up the Hartree potential.
  Time summed over all CPUs for potential: real work        0.179 s, elapsed        0.179 s
  | RMS charge density error from multipole expansion :   0.169628E-02

  Integrating Hamiltonian matrix: batch-based integration.
  Time summed over all CPUs for integration: real work        0.164 s, elapsed        0.167 s
  Evaluating the exchange matrix ... 

  Updating Kohn-Sham eigenvalues, eigenvectors, occupation numbers, and Fermi level.
  Solving generalized eigenproblem
  Updating Kohn-Sham eigenvalues and eigenfunctions.
  Solving real generalised eigenvalue problem by standard LAPACK (fast)
  Determining occupation numbers for Kohn-Sham eigenstates.
  | Chemical potential (Fermi level) in eV                 : -.47155668E+01
  | Error in electron count due to remaining E_F inaccuracy: 0.00000000E+00
  | Maximum occupation number of highest empty state:  0.00E+00

  Highest occupied state (VBM) at    -12.45781729 eV
  | Occupation number:      2.00000000

  Lowest unoccupied state (CBM) at     3.02668369 eV
  | Occupation number:      0.00000000

  Overall HOMO-LUMO gap:     15.48450098 eV.

  Total energy components:
  | Sum of eigenvalues            :          -0.91563274 Ha         -24.91563459 eV
  | XC energy correction          :          -0.37877575 Ha         -10.30701246 eV
  | XC potential correction       :           0.71020850 Ha          19.32575647 eV
  | Free-atom electrostatic energy:          -0.26102610 Ha          -7.10288167 eV
  | Hartree energy correction     :          -0.30796290 Ha          -8.38009688 eV
  | Entropy correction            :           0.00000000 Ha           0.00000000 eV
  | ---------------------------
  | Total energy                  :          -1.15318899 Ha         -31.37986914 eV
  | Total energy, T -> 0          :          -1.15318899 Ha         -31.37986914 eV  <-- do not rely on this value for anything but (periodic) metals
  | Electronic free energy        :          -1.15318899 Ha         -31.37986914 eV

  Derived energy quantities:
  | Kinetic energy                :           2.22277875 Ha          60.48488717 eV
  | Electrostatic energy          :          -1.61410406 Ha         -43.92200631 eV
  | Energy correction for multipole
  | error in Hartree potential    :           0.00003931 Ha           0.00106959 eV
  | Sum of eigenvalues per atom                           :         -12.45781729 eV
  | Total energy (T->0) per atom                          :         -15.68993457 eV  <-- do not rely on this value for anything but (periodic) metals
  | Electronic free energy per atom                       :         -15.68993457 eV

  Self-consistency convergence accuracy:
  | Change of charge density      : 0.3848E-06
  | Change of sum of eigenvalues  : 0.1630E-04 eV
  | Change of total energy        : -.3860E-05 eV

  End self-consistency iteration #     8       :  max(cpu_time)    wall_clock(cpu1)
  | Time for this iteration                    :        0.244 s           0.244 s
  | Charge density update                      :        0.048 s           0.048 s
  | Density mixing                             :        0.020 s           0.016 s
  | Hartree multipole update                   :        0.004 s           0.006 s
  | Hartree multipole summation                :        0.092 s           0.090 s
  | Integration                                :        0.084 s           0.083 s
  | Fock matrix evaluation                     :        0.000 s           0.001 s
  | Solution of K.-S. eqns.                    :        0.000 s           0.000 s
  | Total energy evaluation                    :        0.000 s           0.000 s
------------------------------------------------------------

------------------------------------------------------------
          Begin self-consistency iteration #    9

  Date     :  20130425, Time     :  105621.480
------------------------------------------------------------
  Evaluating new KS density.
  Integration grid: deviation in total charge (<rho> - N_e) =  -7.105427E-15
  Pulay mixing of updated and previous charge densities.
  * Rank deficiency in solve_pulay; rank =     5; saved_iter =     8

  Evaluating partitioned Hartree potential by multipole expansion.
  | Analytical far-field extrapolation by fixed multipoles:
  | Hartree multipole sum: apparent total charge =  -0.930493E-07
  Summing up the Hartree potential.
  Time summed over all CPUs for potential: real work        0.179 s, elapsed        0.179 s
  | RMS charge density error from multipole expansion :   0.169628E-02

  Integrating Hamiltonian matrix: batch-based integration.
  Time summed over all CPUs for integration: real work        0.164 s, elapsed        0.166 s
  Evaluating the exchange matrix ... 

  Updating Kohn-Sham eigenvalues, eigenvectors, occupation numbers, and Fermi level.
  Solving generalized eigenproblem
  Updating Kohn-Sham eigenvalues and eigenfunctions.
  Solving real generalised eigenvalue problem by standard LAPACK (fast)
  Determining occupation numbers for Kohn-Sham eigenstates.
  | Chemical potential (Fermi level) in eV                 : -.47155668E+01
  | Error in electron count due to remaining E_F inaccuracy: 0.00000000E+00
  | Maximum occupation number of highest empty state:  0.00E+00

  Highest occupied state (VBM) at    -12.45781725 eV
  | Occupation number:      2.00000000

  Lowest unoccupied state (CBM) at     3.02668372 eV
  | Occupation number:      0.00000000

  Overall HOMO-LUMO gap:     15.48450097 eV.

  Total energy components:
  | Sum of eigenvalues            :          -0.91563274 Ha         -24.91563451 eV
  | XC energy correction          :          -0.37877576 Ha         -10.30701277 eV
  | XC potential correction       :           0.71020850 Ha          19.32575653 eV
  | Free-atom electrostatic energy:          -0.26102610 Ha          -7.10288167 eV
  | Hartree energy correction     :          -0.30796291 Ha          -8.38009702 eV
  | Entropy correction            :           0.00000000 Ha           0.00000000 eV
  | ---------------------------
  | Total energy                  :          -1.15318901 Ha         -31.37986944 eV
  | Total energy, T -> 0          :          -1.15318901 Ha         -31.37986944 eV  <-- do not rely on this value for anything but (periodic) metals
  | Electronic free energy        :          -1.15318901 Ha         -31.37986944 eV

  Derived energy quantities:
  | Kinetic energy                :           2.22277867 Ha          60.48488515 eV
  | Electrostatic energy          :          -1.61410407 Ha         -43.92200640 eV
  | Energy correction for multipole
  | error in Hartree potential    :           0.00003931 Ha           0.00106959 eV
  | Sum of eigenvalues per atom                           :         -12.45781725 eV
  | Total energy (T->0) per atom                          :         -15.68993472 eV  <-- do not rely on this value for anything but (periodic) metals
  | Electronic free energy per atom                       :         -15.68993472 eV

  Self-consistency convergence accuracy:
  | Change of charge density      : 0.1509E-08
  | Change of sum of eigenvalues  : 0.7896E-07 eV
  | Change of total energy        : -.3085E-06 eV

  Writing Kohn-Sham eigenvalues.

  State    Occupation    Eigenvalue [Ha]    Eigenvalue [eV]
      1       2.00000          -0.457816          -12.45782
      2       0.00000           0.111229            3.02668
      3       0.00000           0.331348            9.01644
      4       0.00000           0.795629           21.65016
      5       0.00000           1.067543           29.04933
      6       0.00000           1.067543           29.04933
      7       0.00000           1.781758           48.48410
      8       0.00000           1.852442           50.40751
      9       0.00000           1.852442           50.40751
     10       0.00000           3.964419          107.87733

  Highest occupied state (VBM) at    -12.45781725 eV
  | Occupation number:      2.00000000

  Lowest unoccupied state (CBM) at     3.02668372 eV
  | Occupation number:      0.00000000

  Overall HOMO-LUMO gap:     15.48450097 eV.

  Self-consistency cycle converged.

  End self-consistency iteration #     9       :  max(cpu_time)    wall_clock(cpu1)
  | Time for this iteration                    :        0.244 s           0.245 s
  | Charge density update                      :        0.048 s           0.048 s
  | Density mixing                             :        0.020 s           0.018 s
  | Hartree multipole update                   :        0.004 s           0.005 s
  | Hartree multipole summation                :        0.092 s           0.090 s
  | Integration                                :        0.084 s           0.083 s
  | Fock matrix evaluation                     :        0.000 s           0.000 s
  | Solution of K.-S. eqns.                    :        0.000 s           0.000 s
  | Total energy evaluation                    :        0.000 s           0.001 s
------------------------------------------------------------
 
  Energy and forces in a compact form:
  | Total energy uncorrected      :         -0.313798694444258E+02 eV
  | Total energy corrected        :         -0.313798694444258E+02 eV  <-- do not rely on this value for anything but (periodic) metals
  | Electronic free energy        :         -0.313798694444258E+02 eV
 
  ------------------------------------ 
  Start decomposition of the XC Energy 
  ------------------------------------ 
  Hartree-Fock part   :          0.172885982 Ha              4.704466927 eV
  ------------------------------------ 
  X Energy            :         -0.332886426 Ha             -9.058300524 eV
  C Energy GGA        :         -0.045889332 Ha             -1.248712251 eV
  Total XC Energy     :         -0.378775757 Ha            -10.307012775 eV
  LDA X and C from self-consistent density 
  X Energy LDA        :         -0.593035072 Ha            -16.137305357 eV
  C Energy LDA        :         -0.096684161 Ha             -2.630909867 eV
  ------------------------------------ 
  End decomposition of the XC Energy 
  ------------------------------------ 
---------------------------------------------
---------------------------------------------
 | MP2 calculation starts ...
---------------------------------------------

  | Note : Resolution of identity applied 
  | Note : Non spin-polarized system 
---------------------------------------------
  | Homo level                                        1
  | Lumo level                                        2
  | Total Number of states                           10
  | Number of k-points                                1
  | Homo-Lumo Gap                            0.56904495 Ha         15.48450097 eV
---------------------------------------------
  The first valence state in the frozen-core algorithm :           1
  Frozen core number for post-SCF calculation          :           0
  The ovlp_3KS matrix takes another      0 MiB x      2 procs =       0.000 GiB.

 
  Starts to calculate the exchange energy ...

---------------------------------------------
| Sum of correlation terms 
---------------------------------------------
  Screened coupling is invoked for CPT2 
  Initial energy      -0.03394509, generated energy      -0.03393241
  The   1th iteration yields      -0.03344063 with the energy change of       0.00049178
  The   2th iteration yields      -0.03344422 with the energy change of      -0.00000359
  The   3th iteration yields      -0.03344776 with the energy change of      -0.00000354
  The   4th iteration yields      -0.03344773 with the energy change of       0.00000003
 E_mp2_term  =  -3.394509156882072E-002 ; E_mp2  =  -3.394509156882072E-002
 E_iepa_term =  -3.344773365571146E-002 ; E_iepa =  -3.344773365571146E-002
  | Pair state     1                    :         -0.92369294 eV         -0.92369294 eV
---------------------------------------------
 
 
 
          ---------------------------------------------
          | MP2 calculation comes to finish ...  
 
          ---------------------------------------------
          | Total time for calculating MP2 correction              :        0.000 s

          ---------------------------------------------

---------------------------------------------
  | DFT Energy                      :         -1.15318901 Ha        -31.37986944 eV
  | DFT XC Energy                   :         -0.37877576 Ha        -10.30701277 eV
  | Exact Echange Energy            :         -0.69154393 Ha        -18.81786769 eV
  | MP2 correction                  :         -0.03394509 Ha         -0.92369294 eV

  | Total (DFT+MP2) Energy          :         -1.49990227 Ha        -40.81441730 eV
  | Coupled MP2 contribution        :         -0.03344773 Ha         -0.91015914 eV
  | Total coupled MP2 energy        :         -1.49940491 Ha        -40.80088350 eV
---------------------------------------------

------------------------------------------------------------------------------
  Final output of selected total energy values:

  The following output summarizes some interesting total energy values
  at the end of a run (AFTER all relaxation, molecular dynamics, etc.).

  | Total energy of the DFT / Hartree-Fock s.c.f. calculation      :            -31.379869444 eV
  | Final zero-broadening corrected energy (caution - metals only) :            -31.379869444 eV
  | Total energy after the post-s.c.f. correlation calculation     :            -40.800883501 eV
  | For reference only, the value of 1 Hartree used in FHI-aims is :             27.211384500 eV

  Before relying on these values, please be sure to understand exactly which
  total energy value is referred to by a given number. Different objects may
  all carry the same name 'total energy'. Definitions:

  Total energy of the DFT / Hartree-Fock s.c.f. calculation:
  | Note that this energy does not include ANY quantities calculated after the
  | s.c.f. cycle, in particular not ANY RPA, MP2, etc. many-body perturbation terms.

  Final zero-broadening corrected energy:
  | For metallic systems only, a broadening of the occupation numbers at the Fermi
  | level can be extrapolated back to zero broadening by an electron-gas inspired
  | formula. For all systems that are not real metals, this value can be
  | meaningless and should be avoided.

  Total energy of the post-s.c.f. correlation calculation        :
  | The actual meaning of this energy depends on the setting for the 'total_energy_method'
  | keyword (MP2, RPA, rPT2, etc). If not sure, compare to the results listed above.

------------------------------------------------------------------------------

------------------------------------------------------------
          Leaving FHI-aims.
          Date     :  20130425, Time     :  105621.778

          Computational steps:
          | Number of self-consistency cycles          :            9

          Detailed time accounting                     :  max(cpu_time)    wall_clock(cpu1)
          | Total time                                 :        2.804 s           2.807 s
          | Preparation time                           :        0.080 s           0.093 s
          | Grid partitioning                          :        0.084 s           0.082 s
          | Preloading free-atom quantities on grid    :        0.036 s           0.033 s
          | Free-atom superposition energy             :        0.040 s           0.042 s
          | Total time for integrations                :        0.868 s           0.861 s
          | Product basis setup: Total time            :        0.000 s           0.000 s
          | Product basis: | 3-center integrations     :        0.156 s           0.156 s
          | Product basis: | 2-center integrations     :        0.036 s           0.035 s
          | Product basis: | 2-center linear algebra   :        0.004 s           0.001 s
          | Product basis: | 3-center x 2-center       :        0.000 s           0.000 s
          | Total time evaluating exchange matrix      :        0.000 s           0.002 s
          | Transforming ovlp_3fn to ovlp_3KS          :        0.004 s           0.000 s
          | Total time for solution of K.-S. equations :        0.008 s           0.004 s
          | Total time for density update              :        0.436 s           0.434 s
          | Total time for mixing                      :        0.108 s           0.104 s
          | Total time for Hartree multipole update    :        0.052 s           0.048 s
          | Total time for Hartree multipole sum       :        0.824 s           0.811 s
          | Total time for total energy evaluation     :        0.000 s           0.002 s

          Have a nice day.
------------------------------------------------------------
