  MPI-parallelism will be employed.
------------------------------------------------------------
          Invoking FHI-aims ...
          Version 030113
          Git rev. (modified): f71f3b8 Merge branch master of fhiaims.rzberlin.mp[...]
          Compiled on 2013/04/24 at 20:31:34 on host theobook58.

          When using FHI-aims, please cite the following reference:

          Volker Blum, Ralf Gehrke, Felix Hanke, Paula Havu,
          Ville Havu, Xinguo Ren, Karsten Reuter, and Matthias Scheffler,
          'Ab Initio Molecular Simulations with Numeric Atom-Centered Orbitals: FHI-aims',
          Computer Physics Communications 180, 2175-2196 (2009)

          For any questions about FHI-aims, please visit the aimsclub website
          with its forums and wiki. Contributions to both the forums and the
          wiki are warmly encouraged - they are for you, and everyone is welcome there.

------------------------------------------------------------

  Date     :  20130425, Time     :  105616.106
  Time zero on CPU 1             :   0.160000000000000E-01  s.
  Internal wall clock time zero  :           136119376.106  s.

  Using        2 parallel tasks.
  Task        0 on host theobook58 reporting.
  Task        1 on host theobook58 reporting.

  Performing system and environment tests:
  | Environment variable OMP_NUM_THREADS correctly set to 1.
  | Checking for scalapack...
  | No scalapack compiled in.

  Obtaining array dimensions for all initial allocations:
  
  -----------------------------------------------------------------------
  Parsing control.in (first pass over file, find array dimensions only).
  The contents of control.in will be repeated verbatim below
  unless switched off by setting 'verbatim_writeout .false.' .
  in the first line of control.in .
  -----------------------------------------------------------------------
  
  xc                      pbe0
  total_energy_method     mp2
  frozen_core_postSCF     1
  relativistic            none
  occupation_type         integer 0.0001
  mixer                   pulay
  n_max_pulay             10
  charge_mix_param        0.6
  sc_accuracy_rho         1E-6
  sc_accuracy_eev         1E-4
  sc_accuracy_etot        1E-6
  sc_iter_limit           200
  charge                  0
  en_shift                           3
  coupling_pt2_factor       1.00000000
  coupling_pt2_screen       1.00000000
  coupling_pt2_shift        0.00000000
  ################################################################################
  #
  #  FHI-aims code project
  # Igor Ying Zhang and Xinguo Ren, Fritz Haber Institute Berlin, 2012
  #
  #  Suggested "cc-pVDZ" defaults for H atom (to be pasted into control.in file)
  #
  ################################################################################
    species        H
  #     global species definitions
      nucleus             1
      mass                1.00794
  #
      l_hartree           6
  #
      cut_pot             4.0  2.0  1.0
      basis_dep_cutoff    0e-0
  #
      radial_base         24 7.0
      radial_multiplier   6
      angular_grids       specified
        division   0.1930   50
        division   0.3175  110
        division   0.4293  194
        division   0.5066  302
        division   0.5626  434
  #      division   0.5922  590
  #      division   0.6227  974
  #      division   0.6868 1202
  #      outer_grid  770
        outer_grid  434
  ################################################################################
  #
  #  Definition of "minimal" basis
  #
  ################################################################################
  #     valence basis states
      valence      1  s   1.
  #     ion occupancy
      ion_occ      1  s   0.5
  ################################################################################
  #
  #   For exact comparison with all GTO-based codes, one or more of
  #   the following flags are needed:
  #
      include_min_basis   .false.
      pure_gauss          .true.
  #
  
  # H cc-pVDZ
   gaussian 0 3
        13.0100000            0.0196850
         1.9620000            0.1379770
         0.4446000            0.4781480
   gaussian 0 1 0.1220000
   gaussian 1 1 0.7270000
  
  -----------------------------------------------------------------------
  Completed first pass over input file control.in .
  -----------------------------------------------------------------------
  
  
  -----------------------------------------------------------------------
  Parsing geometry.in (first pass over file, find array dimensions only).
  The contents of geometry.in will be repeated verbatim below
  unless switched off by setting 'verbatim_writeout .false.' .
  in the first line of geometry.in .
  -----------------------------------------------------------------------
  
  atom             0.0             0.0             0.0    H
  atom             0.0             0.0             0.6    H
  
  -----------------------------------------------------------------------
  Completed first pass over input file geometry.in .
  -----------------------------------------------------------------------
  
 
  Basic array size parameters: 
  | Number of species                 :        1
  | Number of atoms                   :        2
  | Max. basis fn. angular momentum   :        1
  | Max. atomic/ionic basis occupied n:        1
  | Max. number of basis fn. types    :        1
  | Max. radial fns per species/type  :        3
  | Max. logarithmic grid size        :     1131
  | Max. radial integration grid size :      149
  | Max. angular integration grid size:      434
  | Max. angular grid division number :        8
  | Radial grid for Hartree potential :     1131
  | Number of spin channels           :        1

------------------------------------------------------------
          Reading file control.in.
------------------------------------------------------------
  XC: Using hybrid-PBE0 functionals.
  MP2 correlation energy calculation will be started after the DFT/HF calculation.
  Core electrons are frozen in the post-SCF calculation :     1
  Non-relativistic treatment of kinetic energy.
  Occupation type: Integer occupation.
  Using pulay charge density mixing.
  Pulay mixing - number of memorized iterations:   10
  Charge density mixing - mixing parameter:     0.6000
  Convergence accuracy of self-consistent charge density: 0.1000E-05
  Convergence accuracy of sum of eigenvalues: 0.1000E-03
  Convergence accuracy of total energy: 0.1000E-05
  Maximum number of s.-c. iterations  :   200
  Charge =   0.000000E+00: Neutral system requested explicitly.
  Energy shifting on the denominators:      3
  Coupling factor for PT2 on the denominators: ******
  Screening factor for coupling PT2: ******
  Shift for screening effect in coupling PT2:      0
 
  Reading configuration options for species H                   .
  | Found nuclear charge :   1.0000
  | Found atomic mass :    1.00794000000000      amu
  | Found l_max for Hartree potential  :   6
  | Found cutoff potl. onset [A], width [A], scale factor :    4.00000    2.00000    1.00000
  | Threshold for basis-dependent cutoff potential is   0.000000E+00
  | Found data for basic radial integration grid :    24 points, outermost radius =    7.000 A
  | Found multiplier for basic radial grid :   6
  | Found angular grid specification: user-specified.
  | Specified grid contains     6 separate shells.
  | Check grid settings after all constraints further below.
  | Found free-atom valence shell :  1 s   1.000
  | No ionic wave fns used. Skipping ion_occ.
  | Found request to include minimal basis fns. :     F
  | Found request to include pure gaussian fns. :     T
  | Found contracted cartesian Gaussian basis function :  L = 0 ,   3 elementary Gaussians:
  |   alpha = 0.130100E+02 weight = 0.196850E-01
  |   alpha = 0.196200E+01 weight = 0.137977E+00
  |   alpha = 0.444600E+00 weight = 0.478148E+00
  |   In terms of angular momentum, this radial function adds: 
  |     1 s-type basis function
  | Found primitive cartesian Gaussian basis function :  0 0.122000E+00
  |   In terms of angular momentum, this radial function adds: 
  |     1 s-type basis function
  | Found primitive cartesian Gaussian basis function :  1 0.727000E+00
  |   In terms of angular momentum, this radial function adds: 
  |     3 p-type basis functions
  Species H                   : Missing cutoff potential type.
  Defaulting to exp(1/x)/(1-x)^2 type cutoff potential.
  Species H : No 'logarithmic' tag. Using default grid for free atom:
  | Default logarithmic grid data [bohr] : 0.1000E-03 0.1000E+03 0.1012E+01
  Species H : On-site basis accuracy parameter (for Gram-Schmidt orthonormalisation) not specified.
  Using default value basis_acc =  0.1000000E-03.
  Species H                   : Using default innermost maximum threshold i_radial=  2 for radial functions.
  Species H                   : Default cutoff onset for free atom density etc. is infinite
  since the product basis is used (hybrid functionals, Hartree-Fock, GW etc.).
  Species H                   : Basic radial grid will be enhanced according to radial_multiplier =   6, to contain   149 grid points.
 
  Finished reading input file 'control.in'. Consistency checks are next.
 
  Species H: Using default value for prodbas_acc =   1.000000E-02.
  Species H: Using default value max_l_prodbas =     5.
  Target number of points in a grid batch is not set. Defaulting to  100
  Method for grid partitioning is not set. Defaulting to parallel hash+maxmin partitioning.
  Batch size limit is not set. Defaulting to    200
  By default, will store active basis functions for each batch.
  If in need of memory, prune_basis_once .false. can be used to disable this option.
  communication_type for Hartree potential was not specified.
  Defaulting to calc_hartree .
  Pulay mixer: Number of initial linear mixing iterations not set.
  Defaulting to    0 iterations.
  Work space size for distributed Hartree potential not set.
  Defaulting to   0.200000E+03 MB.
  Algorithm-dependent basis array size parameters:
  | n_max_pulay                         :       10
  Calculation of forces was not defined in control.in. No forces will be calculated.
  Geometry relaxation not requested: no relaxation will be performed.
  No accuracy limit for integral partition fn. given. Defaulting to 0.1000E-14.
  No threshold value for u(r) in integrations given. Defaulting to 0.1000E-05.
  No accuracy for occupation numbers given. Defaulting to 0.1000E-07.
  No threshold value for occupation numbers given. Defaulting to 0.0000E+00.
  No accuracy for fermi level given. Defaulting to 0.1000E-19.
  Maximum # of iterations to find E_F not set. Defaulting to  200.
  Preferred method for the eigenvalue solver ('KS_method') not specified in 'control.in'.
  Calling blacs routine to test compilation state
  The best choice would be 'elpa', but your version of FHI-aims is compiled without scalapack support.
  Defaulting to 'lapack_fast' instead (serial solution, time will not improve with more CPUs).
  Will not use alltoall communication since running on < 1024 CPUs.
  Threshold for basis singularities not set.
  Default threshold for basis singularities: 0.1000E-04
  partition_type (choice of integration weights) for integrals was not specified.
  | Using a version of the partition function of Stratmann and coworkers ('stratmann_smoother').
  | At each grid point, the set of atoms used to build the partition table is smoothly restricted to
  | only those atoms whose free-atom density would be non-zero at that grid point.
  Partitioning for Hartree potential was not defined. Using partition_type for integrals.
  | Adjusted default value of keyword multip_moments_threshold to:       0.10000000E-11
  | This value may affect high angular momentum components of the Hartree potential in periodic systems.
  Spin handling was not defined in control.in. Defaulting to unpolarized case.
  Threshold for auxiliary basis singularities not set.
  Default threshold for auxiliary basis singularities: 0.1000E-04
  * Doing correlated calculations, so all empty single-particle states will be included.
  No q(lm)/r^(l+1) cutoff set for long-range Hartree potential.
  | Using default value of  0.100000E-09 .
  | Verify using the multipole_threshold keyword.
  Defaulting to new monopole extrapolation.
  Density update method: automatic selection selected.
  Default to 1D ("use_logsbt") integrations for auxiliary 2-center integrals.
  Default onset of logarithmic r-grid for SBT is-38.000000000000
  Default onset of logarithmic k-grid for SBT is-25.000000000000
  Default range of logarithmic r- and k-grid for SBT is 45.000000000000
  Default number of logarithmic r- and k-grid for SBT is  4096
------------------------------------------------------------


------------------------------------------------------------
          Reading geometry description geometry.in.
------------------------------------------------------------
  Input structure read successfully.
  The structure contains        2 atoms,  and a total of          2.000 electrons.

  Input geometry:
  | No unit cell requested.
  | Atomic structure:
  |       Atom                x [A]            y [A]            z [A]
  |    1: Species H          0.000000         0.000000         0.000000
  |    2: Species H          0.000000         0.000000         0.600000
  |

  Structure-dependent array size parameters: 
  | Maximum number of distinct radial functions  :        3
  | Maximum number of basis functions            :       10
  | Number of Kohn-Sham states (occupied + empty):     2001
------------------------------------------------------------

------------------------------------------------------------
          Preparing all fixed parts of the calculation.
------------------------------------------------------------
  Determining machine precision:
    2.225073858507201E-308
  Setting up grids for atomic and cluster calculations.

  Creating wave function, potential, and density for free atoms.

  Species: H

  List of occupied orbitals and eigenvalues:
    n    l              occ      energy [Ha]    energy [eV]
    1    0           1.0000        -0.238600        -6.4926

  Creating fixed part of basis set: Ionic, confined, hydrogenic.
 
  H                    Gaussian:
 
  List of cartesian Gaussian basis orbitals: 
    L    l
    0    0
    0    0
    1    1
 

  Adding cutoff potential to free-atom effective potential.
  Creating atomic-like basis functions for current effective potential.
  Assembling full basis from fixed parts.
  | Species H : gaussian orbital   0 s accepted.
  | Species H : gaussian orbital   0 s accepted.
  | Species H : gaussian orbital   1 p accepted.

  * You requested     2001 Kohn-Sham states in the calculation,
  * but there are only       10 available basis states.
  * Reducing total number of  Kohn-Sham states to       10.
 
 
  Basis size parameters after reduction:
  | Total number of radial functions:        3
  | Total number of basis functions :       10
 
  Preparing densities etc. for the partition functions (integrals / Hartree potential).

  Preparations completed.
  max(cpu_time)          :      0.080 s.
  Wall clock time (cpu1) :      0.098 s.
------------------------------------------------------------

------------------------------------------------------------
          Begin self-consistency loop: Initialization.

          Date     :  20130425, Time     :  105616.207
------------------------------------------------------------

  Initializing index lists of integration centers etc. from given atomic structure:
  | Number of centers in hartree potential         :         2
  | Number of centers in hartree multipole         :         2
  | Number of centers in electron density summation:         2
  | Number of centers in basis integrals           :         2
  | Number of centers in integrals                 :         2
  Partitioning the integration grid into batches with parallel hashing+maxmin method.
  | Number of batches:      944
  | Maximal batch size:     176
  | Minimal batch size:      83
  | Average batch size:      93.225
  | Standard deviation of batch sizes:      23.981

  Integration load balanced across     2 MPI tasks.
  Work distribution over tasks is as follows:
  Task     0 has      43964 integration points.
  Task     1 has      44040 integration points.
  Initializing partition tables, free-atom densities, potentials, etc. across the integration grid (initialize_grid_storage).
  | Original list of interatomic distances with           2 x          2 entries is created.
  | Net number of integration points:    88004
  | of which are non-zero points    :    78578
  Obtaining max. number of non-zero basis functions in each batch (get_n_compute_maxes).
  | Maximal number of non-zero basis functions:       10 in task     0
  | Maximal number of non-zero basis functions:       10 in task     1
  Selecting the method for density update.
  Loop over occupied states selected for charge density update.
  Integrating Hamiltonian matrix: batch-based integration.
  Time summed over all CPUs for integration: real work        0.193 s, elapsed        0.223 s
  Integrating overlap matrix.
  Time summed over all CPUs for integration: real work        0.045 s, elapsed        0.046 s

  Updating Kohn-Sham eigenvalues, eigenvectors, occupation numbers, and Fermi level.
  Solving generalized eigenproblem
  Updating Kohn-Sham eigenvalues and eigenfunctions.
  Transforming overlap matrix and checking for singularities.
  Overlap matrix is nonsingular:
  | Lowest eigenvalue:  0.191006E-01
  Solving real generalised eigenvalue problem by standard LAPACK (fast)
  Determining occupation numbers for Kohn-Sham eigenstates.
  | Chemical potential (Fermi level) in eV                 : -.73793069E+01
  | Error in electron count due to remaining E_F inaccuracy: 0.00000000E+00
  | Maximum occupation number of highest empty state:  0.00E+00

  Writing Kohn-Sham eigenvalues.

  State    Occupation    Eigenvalue [Ha]    Eigenvalue [eV]
      1       2.00000          -0.565960          -15.40057
      2       0.00000           0.023591            0.64195
      3       0.00000           0.201937            5.49498
      4       0.00000           0.652340           17.75108
      5       0.00000           0.864159           23.51495
      6       0.00000           0.864159           23.51495
      7       0.00000           1.615400           43.95728
      8       0.00000           1.689788           45.98147
      9       0.00000           1.689788           45.98147
     10       0.00000           4.149476          112.91300

  Highest occupied state (VBM) at    -15.40056858 eV
  | Occupation number:      2.00000000

  Lowest unoccupied state (CBM) at     0.64195477 eV
  | Occupation number:      0.00000000

  Overall HOMO-LUMO gap:     16.04252335 eV.
  Calculating total energy contributions from superposition of free atom densities.

  Total energy components:
  | Sum of eigenvalues            :          -1.13192099 Ha         -30.80113715 eV
  | XC energy correction          :          -0.44142058 Ha         -12.01166521 eV
  | XC potential correction       :           0.56853704 Ha          15.47068013 eV
  | Free-atom electrostatic energy:          -0.20350492 Ha          -5.53765068 eV
  | Hartree energy correction     :           0.00000000 Ha           0.00000000 eV
  | Entropy correction            :           0.00000000 Ha           0.00000000 eV
  | ---------------------------
  | Total energy                  :          -1.20830945 Ha         -32.87977291 eV
  | Total energy, T -> 0          :          -1.20830945 Ha         -32.87977291 eV  <-- do not rely on this value for anything but (periodic) metals
  | Electronic free energy        :          -1.20830945 Ha         -32.87977291 eV

  Derived energy quantities:
  | Kinetic energy                :           0.47421736 Ha          12.90411083 eV
  | Electrostatic energy          :          -1.24110622 Ha         -33.77221854 eV
  | Energy correction for multipole
  | error in Hartree potential    :           0.00000000 Ha           0.00000000 eV
  | Sum of eigenvalues per atom                           :         -15.40056858 eV
  | Total energy (T->0) per atom                          :         -16.43988646 eV  <-- do not rely on this value for anything but (periodic) metals
  | Electronic free energy per atom                       :         -16.43988646 eV
 
 --------------------------------------------
  Constructing auxiliary basis (full product) ...
 
  Product basis:
  | charge radius: extent of product basis function
  | field radius: extent of its Coulomb potential
  | Species   l  charge radius    field radius  multipol momen
  |    H      1     3.215356 A      3.215356 A    5.5111E-17 a.u.
  |    H      0     3.815562 A      3.815562 A    7.3434E-17 a.u.
  |    H      0     5.781930 A      5.781930 A    3.3230E-16 a.u.
  |    H      2     2.517934 A    8.6084E+03 A      0.342576 a.u.
  |    H      1     3.254905 A    1.2873E+06 A      0.470947 a.u.
  |    H      0     5.711676 A    3.4615E+12 A      0.520541 a.u.

  | Shrink_full_auxil_basis : there are        6  radial auxiliary wave functions
                            accepted and       2 rejected.
  | Shrink_full_auxil_basis : there are totally      28 partial auxiliary wave functions.
 
  | Number of product basis functions per thread :    14
  | Minimal requirement for computer memories :           0.000 Gbs
 
  Basis pair condensation :        55  -->         55
 
 ----------------------------------------------------
  Integrating the 3-basis-function Coulomb matrix ...
  | i_atom:            1
  | i_atom:            2
  Integrating the Coulomb interaction matrix for auxiliary basis functions (by atoms)

  SBT integration errors (all should be 'small'):
  large logFT aliasing -> increase N/lnrange
  large SBT aliasing -> decrease lnk0 & increase lnk0+lnrange
  large SBT ringing -> decrease lnr0 & increase lnr0+lnrange
  |            El't  L: logFT-al.   small-k   large-k   small-r   large-r
  Atomic logSBT for 2-center Coulomb matrix    :  max(cpu_time)    wall_clock(cpu1)
  | Multiplication with kernel                 :        0.000 s           0.000 s
  | Main matrix multiplication                 :        0.000 s           0.001 s
  | Analytic angular integration               :        0.000 s           0.000 s
  | Kernel construction                        :        0.000 s           0.000 s
  | Overall 2-center overlap time              :        0.000 s           0.002 s

  Difference of Coulomb matrix to its transposed:  2.2204E-16
  Task     0: Eigenvalues of the Coulomb matrix range from    1.9997E+00 to    3.2109E-04.
  Task     0: Using       28   eigenvalues out of rank       28   Coulomb matrix (auxiliary basis).
 
  Multiplying V^-0.5 x ovlp_3fn (1d-scalapack)

  Initialize hartree_potential_storage
  Max. number of atoms included in rho_multipole:            2

  End scf initialization - timings             :  max(cpu_time)    wall_clock(cpu1)
  | Time for scf. initialization               :        0.524 s           0.524 s
  | Boundary condition initialization          :        0.000 s           0.000 s
  | Integration                                :        0.136 s           0.134 s
  | Solution of K.-S. eqns.                    :        0.000 s           0.001 s
  | Grid partitioning                          :        0.080 s           0.079 s
  | Preloading free-atom quantities on grid    :        0.036 s           0.034 s
  | Free-atom superposition energy             :        0.044 s           0.042 s
  | Total energy evaluation                    :        0.000 s           0.000 s
  | Product basis setup: Total time            :        0.196 s           0.196 s
  | Product basis: | 3-center integrations     :        0.156 s           0.155 s
  | Product basis: | 2-center integrations     :        0.032 s           0.035 s
  | Product basis: | 2-center linear algebra   :        0.000 s           0.000 s
  | Product basis: | 3-center x 2-center       :        0.000 s           0.000 s
------------------------------------------------------------

------------------------------------------------------------
          Begin self-consistency iteration #    1

  Date     :  20130425, Time     :  105616.731
------------------------------------------------------------
  Evaluating new KS density.
  Integration grid: deviation in total charge (<rho> - N_e) =  -4.440892E-16
  Pulay mixing of updated and previous charge densities.

  Evaluating partitioned Hartree potential by multipole expansion.
  | Analytical far-field extrapolation by fixed multipoles:
  | Hartree multipole sum: apparent total charge =  -0.929968E-07
  Summing up the Hartree potential.
  Time summed over all CPUs for potential: real work        0.178 s, elapsed        0.179 s
  | RMS charge density error from multipole expansion :   0.141290E-02

  Integrating Hamiltonian matrix: batch-based integration.
  Time summed over all CPUs for integration: real work        0.166 s, elapsed        0.168 s
  Evaluating the exchange matrix ... 

  Updating Kohn-Sham eigenvalues, eigenvectors, occupation numbers, and Fermi level.
  Solving generalized eigenproblem
  Updating Kohn-Sham eigenvalues and eigenfunctions.
  Solving real generalised eigenvalue problem by standard LAPACK (fast)
  Determining occupation numbers for Kohn-Sham eigenstates.
  | Chemical potential (Fermi level) in eV                 : -.56452381E+01
  | Error in electron count due to remaining E_F inaccuracy: 0.00000000E+00
  | Maximum occupation number of highest empty state:  0.00E+00

  Writing Kohn-Sham eigenvalues.

  State    Occupation    Eigenvalue [Ha]    Eigenvalue [eV]
      1       2.00000          -0.520761          -14.17064
      2       0.00000           0.105844            2.88016
      3       0.00000           0.295710            8.04666
      4       0.00000           0.802716           21.84303
      5       0.00000           1.033189           28.11451
      6       0.00000           1.033189           28.11451
      7       0.00000           1.785434           48.58412
      8       0.00000           1.852706           50.41469
      9       0.00000           1.852706           50.41469
     10       0.00000           4.394020          119.56737

  Highest occupied state (VBM) at    -14.17063834 eV
  | Occupation number:      2.00000000

  Lowest unoccupied state (CBM) at     2.88016221 eV
  | Occupation number:      0.00000000

  Overall HOMO-LUMO gap:     17.05080055 eV.

  Total energy components:
  | Sum of eigenvalues            :          -1.04152277 Ha         -28.34127668 eV
  | XC energy correction          :          -0.34097596 Ha          -9.27842803 eV
  | XC potential correction       :           0.68229570 Ha          18.56621050 eV
  | Free-atom electrostatic energy:          -0.20350492 Ha          -5.53765068 eV
  | Hartree energy correction     :          -0.23791355 Ha          -6.47395713 eV
  | Entropy correction            :           0.00000000 Ha           0.00000000 eV
  | ---------------------------
  | Total energy                  :          -1.14162152 Ha         -31.06510202 eV
  | Total energy, T -> 0          :          -1.14162152 Ha         -31.06510202 eV  <-- do not rely on this value for anything but (periodic) metals
  | Electronic free energy        :          -1.14162152 Ha         -31.06510202 eV

  Derived energy quantities:
  | Kinetic energy                :           2.27084926 Ha          61.79295233 eV
  | Electrostatic energy          :          -1.55737594 Ha         -42.37835538 eV
  | Energy correction for multipole
  | error in Hartree potential    :           0.00003575 Ha           0.00097271 eV
  | Sum of eigenvalues per atom                           :         -14.17063834 eV
  | Total energy (T->0) per atom                          :         -15.53255101 eV  <-- do not rely on this value for anything but (periodic) metals
  | Electronic free energy per atom                       :         -15.53255101 eV

  Self-consistency convergence accuracy:
  | Change of charge density      : 0.2014E+00
  | Change of sum of eigenvalues  : 0.2460E+01 eV
  | Change of total energy        : 0.1815E+01 eV

  End self-consistency iteration #     1       :  max(cpu_time)    wall_clock(cpu1)
  | Time for this iteration                    :        0.236 s           0.234 s
  | Charge density update                      :        0.052 s           0.050 s
  | Density mixing                             :        0.004 s           0.004 s
  | Hartree multipole update                   :        0.008 s           0.005 s
  | Hartree multipole summation                :        0.092 s           0.091 s
  | Integration                                :        0.084 s           0.083 s
  | Fock matrix evaluation                     :        0.000 s           0.001 s
  | Solution of K.-S. eqns.                    :        0.000 s           0.000 s
  | Total energy evaluation                    :        0.000 s           0.000 s
------------------------------------------------------------

------------------------------------------------------------
          Begin self-consistency iteration #    2

  Date     :  20130425, Time     :  105616.965
------------------------------------------------------------
  Evaluating new KS density.
  Integration grid: deviation in total charge (<rho> - N_e) =  -1.021405E-14
  Pulay mixing of updated and previous charge densities.

  Evaluating partitioned Hartree potential by multipole expansion.
  | Analytical far-field extrapolation by fixed multipoles:
  | Hartree multipole sum: apparent total charge =  -0.120698E-06
  Summing up the Hartree potential.
  Time summed over all CPUs for potential: real work        0.179 s, elapsed        0.179 s
  | RMS charge density error from multipole expansion :   0.202165E-02

  Integrating Hamiltonian matrix: batch-based integration.
  Time summed over all CPUs for integration: real work        0.165 s, elapsed        0.165 s
  Evaluating the exchange matrix ... 

  Updating Kohn-Sham eigenvalues, eigenvectors, occupation numbers, and Fermi level.
  Solving generalized eigenproblem
  Updating Kohn-Sham eigenvalues and eigenfunctions.
  Solving real generalised eigenvalue problem by standard LAPACK (fast)
  Determining occupation numbers for Kohn-Sham eigenstates.
  | Chemical potential (Fermi level) in eV                 : -.46211076E+01
  | Error in electron count due to remaining E_F inaccuracy: 0.00000000E+00
  | Maximum occupation number of highest empty state:  0.00E+00

  Highest occupied state (VBM) at    -12.63794261 eV
  | Occupation number:      2.00000000

  Lowest unoccupied state (CBM) at     3.39572748 eV
  | Occupation number:      0.00000000

  Overall HOMO-LUMO gap:     16.03367009 eV.

  Total energy components:
  | Sum of eigenvalues            :          -0.92887171 Ha         -25.27588523 eV
  | XC energy correction          :          -0.38886939 Ha         -10.58167437 eV
  | XC potential correction       :           0.73679521 Ha          20.04921778 eV
  | Free-atom electrostatic energy:          -0.20350492 Ha          -5.53765068 eV
  | Hartree energy correction     :          -0.35470782 Ha          -9.65209089 eV
  | Entropy correction            :           0.00000000 Ha           0.00000000 eV
  | ---------------------------
  | Total energy                  :          -1.13915863 Ha         -30.99808338 eV
  | Total energy, T -> 0          :          -1.13915863 Ha         -30.99808338 eV  <-- do not rely on this value for anything but (periodic) metals
  | Electronic free energy        :          -1.13915863 Ha         -30.99808338 eV

  Derived energy quantities:
  | Kinetic energy                :           2.38080298 Ha          64.78494537 eV
  | Electrostatic energy          :          -1.66317823 Ha         -45.25738222 eV
  | Energy correction for multipole
  | error in Hartree potential    :           0.00006650 Ha           0.00180959 eV
  | Sum of eigenvalues per atom                           :         -12.63794261 eV
  | Total energy (T->0) per atom                          :         -15.49904169 eV  <-- do not rely on this value for anything but (periodic) metals
  | Electronic free energy per atom                       :         -15.49904169 eV

  Self-consistency convergence accuracy:
  | Change of charge density      : 0.5722E-01
  | Change of sum of eigenvalues  : 0.3065E+01 eV
  | Change of total energy        : 0.6702E-01 eV

  End self-consistency iteration #     2       :  max(cpu_time)    wall_clock(cpu1)
  | Time for this iteration                    :        0.232 s           0.231 s
  | Charge density update                      :        0.048 s           0.047 s
  | Density mixing                             :        0.004 s           0.006 s
  | Hartree multipole update                   :        0.008 s           0.005 s
  | Hartree multipole summation                :        0.088 s           0.090 s
  | Integration                                :        0.084 s           0.083 s
  | Fock matrix evaluation                     :        0.000 s           0.000 s
  | Solution of K.-S. eqns.                    :        0.000 s           0.000 s
  | Total energy evaluation                    :        0.000 s           0.000 s
------------------------------------------------------------

------------------------------------------------------------
          Begin self-consistency iteration #    3

  Date     :  20130425, Time     :  105617.197
------------------------------------------------------------
  Evaluating new KS density.
  Integration grid: deviation in total charge (<rho> - N_e) =   3.552714E-15
  Pulay mixing of updated and previous charge densities.

  Evaluating partitioned Hartree potential by multipole expansion.
  | Analytical far-field extrapolation by fixed multipoles:
  | Hartree multipole sum: apparent total charge =  -0.107485E-06
  Summing up the Hartree potential.
  Time summed over all CPUs for potential: real work        0.178 s, elapsed        0.179 s
  | RMS charge density error from multipole expansion :   0.186524E-02

  Integrating Hamiltonian matrix: batch-based integration.
  Time summed over all CPUs for integration: real work        0.165 s, elapsed        0.165 s
  Evaluating the exchange matrix ... 

  Updating Kohn-Sham eigenvalues, eigenvectors, occupation numbers, and Fermi level.
  Solving generalized eigenproblem
  Updating Kohn-Sham eigenvalues and eigenfunctions.
  Solving real generalised eigenvalue problem by standard LAPACK (fast)
  Determining occupation numbers for Kohn-Sham eigenstates.
  | Chemical potential (Fermi level) in eV                 : -.48634992E+01
  | Error in electron count due to remaining E_F inaccuracy: 0.00000000E+00
  | Maximum occupation number of highest empty state:  0.00E+00

  Highest occupied state (VBM) at    -12.97609849 eV
  | Occupation number:      2.00000000

  Lowest unoccupied state (CBM) at     3.24910009 eV
  | Occupation number:      0.00000000

  Overall HOMO-LUMO gap:     16.22519858 eV.

  Total energy components:
  | Sum of eigenvalues            :          -0.95372571 Ha         -25.95219698 eV
  | XC energy correction          :          -0.38167922 Ha         -10.38602001 eV
  | XC potential correction       :           0.71956462 Ha          19.58034968 eV
  | Free-atom electrostatic energy:          -0.20350492 Ha          -5.53765068 eV
  | Hartree energy correction     :          -0.31903934 Ha          -8.68150204 eV
  | Entropy correction            :           0.00000000 Ha           0.00000000 eV
  | ---------------------------
  | Total energy                  :          -1.13838456 Ha         -30.97702003 eV
  | Total energy, T -> 0          :          -1.13838456 Ha         -30.97702003 eV  <-- do not rely on this value for anything but (periodic) metals
  | Electronic free energy        :          -1.13838456 Ha         -30.97702003 eV

  Derived energy quantities:
  | Kinetic energy                :           2.27904413 Ha          62.01594606 eV
  | Electrostatic energy          :          -1.61783804 Ha         -44.02361296 eV
  | Energy correction for multipole
  | error in Hartree potential    :           0.00007884 Ha           0.00214532 eV
  | Sum of eigenvalues per atom                           :         -12.97609849 eV
  | Total energy (T->0) per atom                          :         -15.48851001 eV  <-- do not rely on this value for anything but (periodic) metals
  | Electronic free energy per atom                       :         -15.48851001 eV

  Self-consistency convergence accuracy:
  | Change of charge density      : 0.1073E-01
  | Change of sum of eigenvalues  : -.6763E+00 eV
  | Change of total energy        : 0.2106E-01 eV

  End self-consistency iteration #     3       :  max(cpu_time)    wall_clock(cpu1)
  | Time for this iteration                    :        0.232 s           0.234 s
  | Charge density update                      :        0.048 s           0.046 s
  | Density mixing                             :        0.008 s           0.010 s
  | Hartree multipole update                   :        0.004 s           0.005 s
  | Hartree multipole summation                :        0.092 s           0.090 s
  | Integration                                :        0.080 s           0.083 s
  | Fock matrix evaluation                     :        0.000 s           0.000 s
  | Solution of K.-S. eqns.                    :        0.000 s           0.000 s
  | Total energy evaluation                    :        0.000 s           0.000 s
------------------------------------------------------------

------------------------------------------------------------
          Begin self-consistency iteration #    4

  Date     :  20130425, Time     :  105617.431
------------------------------------------------------------
  Evaluating new KS density.
  Integration grid: deviation in total charge (<rho> - N_e) =   5.329071E-15
  Pulay mixing of updated and previous charge densities.

  Evaluating partitioned Hartree potential by multipole expansion.
  | Analytical far-field extrapolation by fixed multipoles:
  | Hartree multipole sum: apparent total charge =  -0.108816E-06
  Summing up the Hartree potential.
  Time summed over all CPUs for potential: real work        0.178 s, elapsed        0.179 s
  | RMS charge density error from multipole expansion :   0.193576E-02

  Integrating Hamiltonian matrix: batch-based integration.
  Time summed over all CPUs for integration: real work        0.165 s, elapsed        0.165 s
  Evaluating the exchange matrix ... 

  Updating Kohn-Sham eigenvalues, eigenvectors, occupation numbers, and Fermi level.
  Solving generalized eigenproblem
  Updating Kohn-Sham eigenvalues and eigenfunctions.
  Solving real generalised eigenvalue problem by standard LAPACK (fast)
  Determining occupation numbers for Kohn-Sham eigenstates.
  | Chemical potential (Fermi level) in eV                 : -.47486885E+01
  | Error in electron count due to remaining E_F inaccuracy: 0.00000000E+00
  | Maximum occupation number of highest empty state:  0.00E+00

  Highest occupied state (VBM) at    -12.81099464 eV
  | Occupation number:      2.00000000

  Lowest unoccupied state (CBM) at     3.31361765 eV
  | Occupation number:      0.00000000

  Overall HOMO-LUMO gap:     16.12461229 eV.

  Total energy components:
  | Sum of eigenvalues            :          -0.94159080 Ha         -25.62198928 eV
  | XC energy correction          :          -0.38648368 Ha         -10.51675609 eV
  | XC potential correction       :           0.72638711 Ha          19.76599886 eV
  | Free-atom electrostatic energy:          -0.20350492 Ha          -5.53765068 eV
  | Hartree energy correction     :          -0.33348260 Ha          -9.07452331 eV
  | Entropy correction            :           0.00000000 Ha           0.00000000 eV
  | ---------------------------
  | Total energy                  :          -1.13867490 Ha         -30.98492050 eV
  | Total energy, T -> 0          :          -1.13867490 Ha         -30.98492050 eV  <-- do not rely on this value for anything but (periodic) metals
  | Electronic free energy        :          -1.13867490 Ha         -30.98492050 eV

  Derived energy quantities:
  | Kinetic energy                :           2.30250523 Ha          62.65435504 eV
  | Electrostatic energy          :          -1.63287489 Ha         -44.43278652 eV
  | Energy correction for multipole
  | error in Hartree potential    :           0.00007921 Ha           0.00215543 eV
  | Sum of eigenvalues per atom                           :         -12.81099464 eV
  | Total energy (T->0) per atom                          :         -15.49246025 eV  <-- do not rely on this value for anything but (periodic) metals
  | Electronic free energy per atom                       :         -15.49246025 eV

  Self-consistency convergence accuracy:
  | Change of charge density      : 0.9100E-02
  | Change of sum of eigenvalues  : 0.3302E+00 eV
  | Change of total energy        : -.7900E-02 eV

  End self-consistency iteration #     4       :  max(cpu_time)    wall_clock(cpu1)
  | Time for this iteration                    :        0.236 s           0.236 s
  | Charge density update                      :        0.048 s           0.047 s
  | Density mixing                             :        0.012 s           0.011 s
  | Hartree multipole update                   :        0.004 s           0.005 s
  | Hartree multipole summation                :        0.092 s           0.090 s
  | Integration                                :        0.080 s           0.083 s
  | Fock matrix evaluation                     :        0.000 s           0.000 s
  | Solution of K.-S. eqns.                    :        0.000 s           0.000 s
  | Total energy evaluation                    :        0.000 s           0.000 s
------------------------------------------------------------

------------------------------------------------------------
          Begin self-consistency iteration #    5

  Date     :  20130425, Time     :  105617.667
------------------------------------------------------------
  Evaluating new KS density.
  Integration grid: deviation in total charge (<rho> - N_e) =   6.217249E-15
  Pulay mixing of updated and previous charge densities.

  Evaluating partitioned Hartree potential by multipole expansion.
  | Analytical far-field extrapolation by fixed multipoles:
  | Hartree multipole sum: apparent total charge =  -0.108789E-06
  Summing up the Hartree potential.
  Time summed over all CPUs for potential: real work        0.178 s, elapsed        0.179 s
  | RMS charge density error from multipole expansion :   0.195527E-02

  Integrating Hamiltonian matrix: batch-based integration.
  Time summed over all CPUs for integration: real work        0.159 s, elapsed        0.159 s
  Evaluating the exchange matrix ... 

  Updating Kohn-Sham eigenvalues, eigenvectors, occupation numbers, and Fermi level.
  Solving generalized eigenproblem
  Updating Kohn-Sham eigenvalues and eigenfunctions.
  Solving real generalised eigenvalue problem by standard LAPACK (fast)
  Determining occupation numbers for Kohn-Sham eigenstates.
  | Chemical potential (Fermi level) in eV                 : -.47225472E+01
  | Error in electron count due to remaining E_F inaccuracy: 0.00000000E+00
  | Maximum occupation number of highest empty state:  0.00E+00

  Highest occupied state (VBM) at    -12.77314944 eV
  | Occupation number:      2.00000000

  Lowest unoccupied state (CBM) at     3.32805498 eV
  | Occupation number:      0.00000000

  Overall HOMO-LUMO gap:     16.10120441 eV.

  Total energy components:
  | Sum of eigenvalues            :          -0.93880923 Ha         -25.54629887 eV
  | XC energy correction          :          -0.38779885 Ha         -10.55254367 eV
  | XC potential correction       :           0.72801851 Ha          19.81039163 eV
  | Free-atom electrostatic energy:          -0.20350492 Ha          -5.53765068 eV
  | Hartree energy correction     :          -0.33692649 Ha          -9.16823616 eV
  | Entropy correction            :           0.00000000 Ha           0.00000000 eV
  | ---------------------------
  | Total energy                  :          -1.13902098 Ha         -30.99433776 eV
  | Total energy, T -> 0          :          -1.13902098 Ha         -30.99433776 eV  <-- do not rely on this value for anything but (periodic) metals
  | Electronic free energy        :          -1.13902098 Ha         -30.99433776 eV

  Derived energy quantities:
  | Kinetic energy                :           2.30698358 Ha          62.77621726 eV
  | Electrostatic energy          :          -1.63674329 Ha         -44.53805112 eV
  | Energy correction for multipole
  | error in Hartree potential    :           0.00007940 Ha           0.00216069 eV
  | Sum of eigenvalues per atom                           :         -12.77314944 eV
  | Total energy (T->0) per atom                          :         -15.49716888 eV  <-- do not rely on this value for anything but (periodic) metals
  | Electronic free energy per atom                       :         -15.49716888 eV

  Self-consistency convergence accuracy:
  | Change of charge density      : 0.9754E-03
  | Change of sum of eigenvalues  : 0.7569E-01 eV
  | Change of total energy        : -.9417E-02 eV

  End self-consistency iteration #     5       :  max(cpu_time)    wall_clock(cpu1)
  | Time for this iteration                    :        0.236 s           0.235 s
  | Charge density update                      :        0.048 s           0.047 s
  | Density mixing                             :        0.012 s           0.012 s
  | Hartree multipole update                   :        0.004 s           0.005 s
  | Hartree multipole summation                :        0.092 s           0.090 s
  | Integration                                :        0.080 s           0.080 s
  | Fock matrix evaluation                     :        0.000 s           0.000 s
  | Solution of K.-S. eqns.                    :        0.000 s           0.000 s
  | Total energy evaluation                    :        0.000 s           0.000 s
------------------------------------------------------------

------------------------------------------------------------
          Begin self-consistency iteration #    6

  Date     :  20130425, Time     :  105617.902
------------------------------------------------------------
  Evaluating new KS density.
  Integration grid: deviation in total charge (<rho> - N_e) =  -6.661338E-15
  Pulay mixing of updated and previous charge densities.

  Evaluating partitioned Hartree potential by multipole expansion.
  | Analytical far-field extrapolation by fixed multipoles:
  | Hartree multipole sum: apparent total charge =  -0.108871E-06
  Summing up the Hartree potential.
  Time summed over all CPUs for potential: real work        0.179 s, elapsed        0.180 s
  | RMS charge density error from multipole expansion :   0.194484E-02

  Integrating Hamiltonian matrix: batch-based integration.
  Time summed over all CPUs for integration: real work        0.163 s, elapsed        0.163 s
  Evaluating the exchange matrix ... 

  Updating Kohn-Sham eigenvalues, eigenvectors, occupation numbers, and Fermi level.
  Solving generalized eigenproblem
  Updating Kohn-Sham eigenvalues and eigenfunctions.
  Solving real generalised eigenvalue problem by standard LAPACK (fast)
  Determining occupation numbers for Kohn-Sham eigenstates.
  | Chemical potential (Fermi level) in eV                 : -.47356842E+01
  | Error in electron count due to remaining E_F inaccuracy: 0.00000000E+00
  | Maximum occupation number of highest empty state:  0.00E+00

  Highest occupied state (VBM) at    -12.79222643 eV
  | Occupation number:      2.00000000

  Lowest unoccupied state (CBM) at     3.32085801 eV
  | Occupation number:      0.00000000

  Overall HOMO-LUMO gap:     16.11308444 eV.

  Total energy components:
  | Sum of eigenvalues            :          -0.94021136 Ha         -25.58445287 eV
  | XC energy correction          :          -0.38726869 Ha         -10.53811731 eV
  | XC potential correction       :           0.72718274 Ha          19.78764905 eV
  | Free-atom electrostatic energy:          -0.20350492 Ha          -5.53765068 eV
  | Hartree energy correction     :          -0.33516496 Ha          -9.12030269 eV
  | Entropy correction            :           0.00000000 Ha           0.00000000 eV
  | ---------------------------
  | Total energy                  :          -1.13896720 Ha         -30.99287450 eV
  | Total energy, T -> 0          :          -1.13896720 Ha         -30.99287450 eV  <-- do not rely on this value for anything but (periodic) metals
  | Electronic free energy        :          -1.13896720 Ha         -30.99287450 eV

  Derived energy quantities:
  | Kinetic energy                :           2.30349401 Ha          62.68126114 eV
  | Electrostatic energy          :          -1.63470210 Ha         -44.48250738 eV
  | Energy correction for multipole
  | error in Hartree potential    :           0.00007930 Ha           0.00215793 eV
  | Sum of eigenvalues per atom                           :         -12.79222643 eV
  | Total energy (T->0) per atom                          :         -15.49643725 eV  <-- do not rely on this value for anything but (periodic) metals
  | Electronic free energy per atom                       :         -15.49643725 eV

  Self-consistency convergence accuracy:
  | Change of charge density      : 0.1058E-02
  | Change of sum of eigenvalues  : -.3815E-01 eV
  | Change of total energy        : 0.1463E-02 eV

  End self-consistency iteration #     6       :  max(cpu_time)    wall_clock(cpu1)
  | Time for this iteration                    :        0.236 s           0.238 s
  | Charge density update                      :        0.048 s           0.047 s
  | Density mixing                             :        0.016 s           0.013 s
  | Hartree multipole update                   :        0.004 s           0.006 s
  | Hartree multipole summation                :        0.092 s           0.090 s
  | Integration                                :        0.080 s           0.081 s
  | Fock matrix evaluation                     :        0.000 s           0.000 s
  | Solution of K.-S. eqns.                    :        0.000 s           0.001 s
  | Total energy evaluation                    :        0.000 s           0.000 s
------------------------------------------------------------

------------------------------------------------------------
          Begin self-consistency iteration #    7

  Date     :  20130425, Time     :  105618.140
------------------------------------------------------------
  Evaluating new KS density.
  Integration grid: deviation in total charge (<rho> - N_e) =   8.881784E-16
  Pulay mixing of updated and previous charge densities.
  * Rank deficiency in solve_pulay; rank =     5; saved_iter =     6

  Evaluating partitioned Hartree potential by multipole expansion.
  | Analytical far-field extrapolation by fixed multipoles:
  | Hartree multipole sum: apparent total charge =  -0.108871E-06
  Summing up the Hartree potential.
  Time summed over all CPUs for potential: real work        0.180 s, elapsed        0.180 s
  | RMS charge density error from multipole expansion :   0.194484E-02

  Integrating Hamiltonian matrix: batch-based integration.
  Time summed over all CPUs for integration: real work        0.162 s, elapsed        0.162 s
  Evaluating the exchange matrix ... 

  Updating Kohn-Sham eigenvalues, eigenvectors, occupation numbers, and Fermi level.
  Solving generalized eigenproblem
  Updating Kohn-Sham eigenvalues and eigenfunctions.
  Solving real generalised eigenvalue problem by standard LAPACK (fast)
  Determining occupation numbers for Kohn-Sham eigenstates.
  | Chemical potential (Fermi level) in eV                 : -.47356784E+01
  | Error in electron count due to remaining E_F inaccuracy: 0.00000000E+00
  | Maximum occupation number of highest empty state:  0.00E+00

  Highest occupied state (VBM) at    -12.79222090 eV
  | Occupation number:      2.00000000

  Lowest unoccupied state (CBM) at     3.32086407 eV
  | Occupation number:      0.00000000

  Overall HOMO-LUMO gap:     16.11308497 eV.

  Total energy components:
  | Sum of eigenvalues            :          -0.94021095 Ha         -25.58444179 eV
  | XC energy correction          :          -0.38725382 Ha         -10.53771248 eV
  | XC potential correction       :           0.72718314 Ha          19.78766002 eV
  | Free-atom electrostatic energy:          -0.20350492 Ha          -5.53765068 eV
  | Hartree energy correction     :          -0.33516583 Ha          -9.12032617 eV
  | Entropy correction            :           0.00000000 Ha           0.00000000 eV
  | ---------------------------
  | Total energy                  :          -1.13895238 Ha         -30.99247109 eV
  | Total energy, T -> 0          :          -1.13895238 Ha         -30.99247109 eV  <-- do not rely on this value for anything but (periodic) metals
  | Electronic free energy        :          -1.13895238 Ha         -30.99247109 eV

  Derived energy quantities:
  | Kinetic energy                :           2.30361571 Ha          62.68457271 eV
  | Electrostatic energy          :          -1.63470241 Ha         -44.48251574 eV
  | Energy correction for multipole
  | error in Hartree potential    :           0.00007930 Ha           0.00215793 eV
  | Sum of eigenvalues per atom                           :         -12.79222090 eV
  | Total energy (T->0) per atom                          :         -15.49623555 eV  <-- do not rely on this value for anything but (periodic) metals
  | Electronic free energy per atom                       :         -15.49623555 eV

  Self-consistency convergence accuracy:
  | Change of charge density      : 0.8251E-06
  | Change of sum of eigenvalues  : 0.1108E-04 eV
  | Change of total energy        : 0.4034E-03 eV

  End self-consistency iteration #     7       :  max(cpu_time)    wall_clock(cpu1)
  | Time for this iteration                    :        0.240 s           0.239 s
  | Charge density update                      :        0.048 s           0.047 s
  | Density mixing                             :        0.016 s           0.015 s
  | Hartree multipole update                   :        0.004 s           0.005 s
  | Hartree multipole summation                :        0.092 s           0.090 s
  | Integration                                :        0.084 s           0.082 s
  | Fock matrix evaluation                     :        0.000 s           0.000 s
  | Solution of K.-S. eqns.                    :        0.000 s           0.000 s
  | Total energy evaluation                    :        0.000 s           0.000 s
------------------------------------------------------------

------------------------------------------------------------
          Begin self-consistency iteration #    8

  Date     :  20130425, Time     :  105618.379
------------------------------------------------------------
  Evaluating new KS density.
  Integration grid: deviation in total charge (<rho> - N_e) =  -4.662937E-15
  Pulay mixing of updated and previous charge densities.
  * Rank deficiency in solve_pulay; rank =     6; saved_iter =     7

  Evaluating partitioned Hartree potential by multipole expansion.
  | Analytical far-field extrapolation by fixed multipoles:
  | Hartree multipole sum: apparent total charge =  -0.108871E-06
  Summing up the Hartree potential.
  Time summed over all CPUs for potential: real work        0.183 s, elapsed        0.187 s
  | RMS charge density error from multipole expansion :   0.194484E-02

  Integrating Hamiltonian matrix: batch-based integration.
  Time summed over all CPUs for integration: real work        0.163 s, elapsed        0.163 s
  Evaluating the exchange matrix ... 

  Updating Kohn-Sham eigenvalues, eigenvectors, occupation numbers, and Fermi level.
  Solving generalized eigenproblem
  Updating Kohn-Sham eigenvalues and eigenfunctions.
  Solving real generalised eigenvalue problem by standard LAPACK (fast)
  Determining occupation numbers for Kohn-Sham eigenstates.
  | Chemical potential (Fermi level) in eV                 : -.47356689E+01
  | Error in electron count due to remaining E_F inaccuracy: 0.00000000E+00
  | Maximum occupation number of highest empty state:  0.00E+00

  Highest occupied state (VBM) at    -12.79220891 eV
  | Occupation number:      2.00000000

  Lowest unoccupied state (CBM) at     3.32087120 eV
  | Occupation number:      0.00000000

  Overall HOMO-LUMO gap:     16.11308011 eV.

  Total energy components:
  | Sum of eigenvalues            :          -0.94021007 Ha         -25.58441782 eV
  | XC energy correction          :          -0.38725416 Ha         -10.53772174 eV
  | XC potential correction       :           0.72718377 Ha          19.78767721 eV
  | Free-atom electrostatic energy:          -0.20350492 Ha          -5.53765068 eV
  | Hartree energy correction     :          -0.33516717 Ha          -9.12036263 eV
  | Entropy correction            :           0.00000000 Ha           0.00000000 eV
  | ---------------------------
  | Total energy                  :          -1.13895255 Ha         -30.99247566 eV
  | Total energy, T -> 0          :          -1.13895255 Ha         -30.99247566 eV  <-- do not rely on this value for anything but (periodic) metals
  | Electronic free energy        :          -1.13895255 Ha         -30.99247566 eV

  Derived energy quantities:
  | Kinetic energy                :           2.30361814 Ha          62.68463892 eV
  | Electrostatic energy          :          -1.63470351 Ha         -44.48254574 eV
  | Energy correction for multipole
  | error in Hartree potential    :           0.00007930 Ha           0.00215794 eV
  | Sum of eigenvalues per atom                           :         -12.79220891 eV
  | Total energy (T->0) per atom                          :         -15.49623783 eV  <-- do not rely on this value for anything but (periodic) metals
  | Electronic free energy per atom                       :         -15.49623783 eV

  Self-consistency convergence accuracy:
  | Change of charge density      : 0.5650E-06
  | Change of sum of eigenvalues  : 0.2397E-04 eV
  | Change of total energy        : -.4568E-05 eV

  End self-consistency iteration #     8       :  max(cpu_time)    wall_clock(cpu1)
  | Time for this iteration                    :        0.244 s           0.244 s
  | Charge density update                      :        0.048 s           0.047 s
  | Density mixing                             :        0.016 s           0.016 s
  | Hartree multipole update                   :        0.004 s           0.005 s
  | Hartree multipole summation                :        0.096 s           0.094 s
  | Integration                                :        0.084 s           0.082 s
  | Fock matrix evaluation                     :        0.000 s           0.000 s
  | Solution of K.-S. eqns.                    :        0.000 s           0.000 s
  | Total energy evaluation                    :        0.000 s           0.000 s
------------------------------------------------------------

------------------------------------------------------------
          Begin self-consistency iteration #    9

  Date     :  20130425, Time     :  105618.624
------------------------------------------------------------
  Evaluating new KS density.
  Integration grid: deviation in total charge (<rho> - N_e) =  -8.881784E-16
  Pulay mixing of updated and previous charge densities.
  * Rank deficiency in solve_pulay; rank =     5; saved_iter =     8

  Evaluating partitioned Hartree potential by multipole expansion.
  | Analytical far-field extrapolation by fixed multipoles:
  | Hartree multipole sum: apparent total charge =  -0.108871E-06
  Summing up the Hartree potential.
  Time summed over all CPUs for potential: real work        0.178 s, elapsed        0.179 s
  | RMS charge density error from multipole expansion :   0.194484E-02

  Integrating Hamiltonian matrix: batch-based integration.
  Time summed over all CPUs for integration: real work        0.163 s, elapsed        0.163 s
  Evaluating the exchange matrix ... 

  Updating Kohn-Sham eigenvalues, eigenvectors, occupation numbers, and Fermi level.
  Solving generalized eigenproblem
  Updating Kohn-Sham eigenvalues and eigenfunctions.
  Solving real generalised eigenvalue problem by standard LAPACK (fast)
  Determining occupation numbers for Kohn-Sham eigenstates.
  | Chemical potential (Fermi level) in eV                 : -.47356688E+01
  | Error in electron count due to remaining E_F inaccuracy: 0.00000000E+00
  | Maximum occupation number of highest empty state:  0.00E+00

  Highest occupied state (VBM) at    -12.79220882 eV
  | Occupation number:      2.00000000

  Lowest unoccupied state (CBM) at     3.32087126 eV
  | Occupation number:      0.00000000

  Overall HOMO-LUMO gap:     16.11308007 eV.

  Total energy components:
  | Sum of eigenvalues            :          -0.94021007 Ha         -25.58441763 eV
  | XC energy correction          :          -0.38725417 Ha         -10.53772219 eV
  | XC potential correction       :           0.72718378 Ha          19.78767735 eV
  | Free-atom electrostatic energy:          -0.20350492 Ha          -5.53765068 eV
  | Hartree energy correction     :          -0.33516718 Ha          -9.12036293 eV
  | Entropy correction            :           0.00000000 Ha           0.00000000 eV
  | ---------------------------
  | Total energy                  :          -1.13895256 Ha         -30.99247608 eV
  | Total energy, T -> 0          :          -1.13895256 Ha         -30.99247608 eV  <-- do not rely on this value for anything but (periodic) metals
  | Electronic free energy        :          -1.13895256 Ha         -30.99247608 eV

  Derived energy quantities:
  | Kinetic energy                :           2.30361805 Ha          62.68463643 eV
  | Electrostatic energy          :          -1.63470352 Ha         -44.48254597 eV
  | Energy correction for multipole
  | error in Hartree potential    :           0.00007930 Ha           0.00215794 eV
  | Sum of eigenvalues per atom                           :         -12.79220882 eV
  | Total energy (T->0) per atom                          :         -15.49623804 eV  <-- do not rely on this value for anything but (periodic) metals
  | Electronic free energy per atom                       :         -15.49623804 eV

  Self-consistency convergence accuracy:
  | Change of charge density      : 0.3115E-08
  | Change of sum of eigenvalues  : 0.1842E-06 eV
  | Change of total energy        : -.4178E-06 eV

  Writing Kohn-Sham eigenvalues.

  State    Occupation    Eigenvalue [Ha]    Eigenvalue [eV]
      1       2.00000          -0.470105          -12.79221
      2       0.00000           0.122040            3.32087
      3       0.00000           0.321589            8.75089
      4       0.00000           0.839393           22.84103
      5       0.00000           1.074258           29.23204
      6       0.00000           1.074258           29.23204
      7       0.00000           1.822773           49.60017
      8       0.00000           1.885738           51.31355
      9       0.00000           1.885738           51.31355
     10       0.00000           4.445779          120.97581

  Highest occupied state (VBM) at    -12.79220882 eV
  | Occupation number:      2.00000000

  Lowest unoccupied state (CBM) at     3.32087126 eV
  | Occupation number:      0.00000000

  Overall HOMO-LUMO gap:     16.11308007 eV.

  Self-consistency cycle converged.

  End self-consistency iteration #     9       :  max(cpu_time)    wall_clock(cpu1)
  | Time for this iteration                    :        0.244 s           0.241 s
  | Charge density update                      :        0.048 s           0.046 s
  | Density mixing                             :        0.016 s           0.018 s
  | Hartree multipole update                   :        0.008 s           0.005 s
  | Hartree multipole summation                :        0.092 s           0.090 s
  | Integration                                :        0.080 s           0.082 s
  | Fock matrix evaluation                     :        0.000 s           0.000 s
  | Solution of K.-S. eqns.                    :        0.000 s           0.000 s
  | Total energy evaluation                    :        0.000 s           0.000 s
------------------------------------------------------------
 
  Energy and forces in a compact form:
  | Total energy uncorrected      :         -0.309924760768890E+02 eV
  | Total energy corrected        :         -0.309924760768890E+02 eV  <-- do not rely on this value for anything but (periodic) metals
  | Electronic free energy        :         -0.309924760768890E+02 eV
 
  ------------------------------------ 
  Start decomposition of the XC Energy 
  ------------------------------------ 
  Hartree-Fock part   :          0.177576615 Ha              4.832105544 eV
  ------------------------------------ 
  X Energy            :         -0.340947759 Ha             -9.277660553 eV
  C Energy GGA        :         -0.046306414 Ha             -1.260061636 eV
  Total XC Energy     :         -0.387254173 Ha            -10.537722189 eV
  LDA X and C from self-consistent density 
  X Energy LDA        :         -0.608413676 Ha            -16.555778467 eV
  C Energy LDA        :         -0.097744205 Ha             -2.659755136 eV
  ------------------------------------ 
  End decomposition of the XC Energy 
  ------------------------------------ 
---------------------------------------------
---------------------------------------------
 | MP2 calculation starts ...
---------------------------------------------

  | Note : Resolution of identity applied 
  | Note : Non spin-polarized system 
---------------------------------------------
  | Homo level                                        1
  | Lumo level                                        2
  | Total Number of states                           10
  | Number of k-points                                1
  | Homo-Lumo Gap                            0.59214481 Ha         16.11308007 eV
---------------------------------------------
  The first valence state in the frozen-core algorithm :           1
  Frozen core number for post-SCF calculation          :           0
  The ovlp_3KS matrix takes another      0 MiB x      2 procs =       0.000 GiB.

 
  Starts to calculate the exchange energy ...

---------------------------------------------
| Sum of correlation terms 
---------------------------------------------
  Screened coupling is invoked for CPT2 
  Initial energy      -0.03300982, generated energy      -0.03300100
  The   1th iteration yields      -0.03255588 with the energy change of       0.00044512
  The   2th iteration yields      -0.03255889 with the energy change of      -0.00000301
  The   3th iteration yields      -0.03256186 with the energy change of      -0.00000297
  The   4th iteration yields      -0.03256184 with the energy change of       0.00000002
 E_mp2_term  =  -3.300982499985392E-002 ; E_mp2  =  -3.300982499985392E-002
 E_iepa_term =  -3.256184116621898E-002 ; E_iepa =  -3.256184116621898E-002
  | Pair state     1                    :         -0.89824304 eV         -0.89824304 eV
---------------------------------------------
 
 
 
          ---------------------------------------------
          | MP2 calculation comes to finish ...  
 
          ---------------------------------------------
          | Total time for calculating MP2 correction              :        0.000 s

          ---------------------------------------------

---------------------------------------------
  | DFT Energy                      :         -1.13895256 Ha        -30.99247608 eV
  | DFT XC Energy                   :         -0.38725417 Ha        -10.53772219 eV
  | Exact Echange Energy            :         -0.71030646 Ha        -19.32842214 eV
  | MP2 correction                  :         -0.03300982 Ha         -0.89824304 eV

  | Total (DFT+MP2) Energy          :         -1.49501467 Ha        -40.68141907 eV
  | Coupled MP2 contribution        :         -0.03256184 Ha         -0.88605278 eV
  | Total coupled MP2 energy        :         -1.49456669 Ha        -40.66922881 eV
---------------------------------------------

------------------------------------------------------------------------------
  Final output of selected total energy values:

  The following output summarizes some interesting total energy values
  at the end of a run (AFTER all relaxation, molecular dynamics, etc.).

  | Total energy of the DFT / Hartree-Fock s.c.f. calculation      :            -30.992476077 eV
  | Final zero-broadening corrected energy (caution - metals only) :            -30.992476077 eV
  | Total energy after the post-s.c.f. correlation calculation     :            -40.669228812 eV
  | For reference only, the value of 1 Hartree used in FHI-aims is :             27.211384500 eV

  Before relying on these values, please be sure to understand exactly which
  total energy value is referred to by a given number. Different objects may
  all carry the same name 'total energy'. Definitions:

  Total energy of the DFT / Hartree-Fock s.c.f. calculation:
  | Note that this energy does not include ANY quantities calculated after the
  | s.c.f. cycle, in particular not ANY RPA, MP2, etc. many-body perturbation terms.

  Final zero-broadening corrected energy:
  | For metallic systems only, a broadening of the occupation numbers at the Fermi
  | level can be extrapolated back to zero broadening by an electron-gas inspired
  | formula. For all systems that are not real metals, this value can be
  | meaningless and should be avoided.

  Total energy of the post-s.c.f. correlation calculation        :
  | The actual meaning of this energy depends on the setting for the 'total_energy_method'
  | keyword (MP2, RPA, rPT2, etc). If not sure, compare to the results listed above.

------------------------------------------------------------------------------

------------------------------------------------------------
          Leaving FHI-aims.
          Date     :  20130425, Time     :  105618.918

          Computational steps:
          | Number of self-consistency cycles          :            9

          Detailed time accounting                     :  max(cpu_time)    wall_clock(cpu1)
          | Total time                                 :        2.808 s           2.812 s
          | Preparation time                           :        0.080 s           0.098 s
          | Grid partitioning                          :        0.080 s           0.079 s
          | Preloading free-atom quantities on grid    :        0.036 s           0.034 s
          | Free-atom superposition energy             :        0.044 s           0.042 s
          | Total time for integrations                :        0.872 s           0.873 s
          | Product basis setup: Total time            :        0.000 s           0.000 s
          | Product basis: | 3-center integrations     :        0.156 s           0.155 s
          | Product basis: | 2-center integrations     :        0.032 s           0.035 s
          | Product basis: | 2-center linear algebra   :        0.000 s           0.000 s
          | Product basis: | 3-center x 2-center       :        0.000 s           0.000 s
          | Total time evaluating exchange matrix      :        0.000 s           0.001 s
          | Transforming ovlp_3fn to ovlp_3KS          :        0.000 s           0.000 s
          | Total time for solution of K.-S. equations :        0.000 s           0.002 s
          | Total time for density update              :        0.436 s           0.424 s
          | Total time for mixing                      :        0.104 s           0.105 s
          | Total time for Hartree multipole update    :        0.048 s           0.046 s
          | Total time for Hartree multipole sum       :        0.828 s           0.815 s
          | Total time for total energy evaluation     :        0.000 s           0.000 s

          Have a nice day.
------------------------------------------------------------
