 Entering Gaussian System, Link 0=/share/apps/G09A02/g09/g09
 Input=./.script12553/Job_H_CH4_35.com
 Output=./.script12553/Job_H_CH4_35.log
 Initial command:
 /share/apps/G09A02/g09/l1.exe /state/partition1/wenxinzy/scratch/Gau-16135.inp -scrdir=/state/partition1/wenxinzy/scratch/
 Default is to use a total of   8 processors:
                                8 via shared-memory
                                1 via Linda
 Entering Link 1 = /share/apps/G09A02/g09/l1.exe PID=     16136.
  
 Copyright (c) 1988,1990,1992,1993,1995,1998,2003,2009, Gaussian, Inc.
                  All Rights Reserved.
  
 This is part of the Gaussian(R) 09 program.  It is based on
 the Gaussian(R) 03 system (copyright 2003, Gaussian, Inc.),
 the Gaussian(R) 98 system (copyright 1998, Gaussian, Inc.),
 the Gaussian(R) 94 system (copyright 1995, Gaussian, Inc.),
 the Gaussian 92(TM) system (copyright 1992, Gaussian, Inc.),
 the Gaussian 90(TM) system (copyright 1990, Gaussian, Inc.),
 the Gaussian 88(TM) system (copyright 1988, Gaussian, Inc.),
 the Gaussian 86(TM) system (copyright 1986, Carnegie Mellon
 University), and the Gaussian 82(TM) system (copyright 1983,
 Carnegie Mellon University). Gaussian is a federally registered
 trademark of Gaussian, Inc.
  
 This software contains proprietary and confidential information,
 including trade secrets, belonging to Gaussian, Inc.
  
 This software is provided under written license and may be
 used, copied, transmitted, or stored only in accord with that
 written license.
  
 The following legend is applicable only to US Government
 contracts under FAR:
  
                    RESTRICTED RIGHTS LEGEND
  
 Use, reproduction and disclosure by the US Government is
 subject to restrictions as set forth in subparagraphs (a)
 and (c) of the Commercial Computer Software - Restricted
 Rights clause in FAR 52.227-19.
  
 Gaussian, Inc.
 340 Quinnipiac St., Bldg. 40, Wallingford CT 06492
  
  
 ---------------------------------------------------------------
 Warning -- This program may not be used in any manner that
 competes with the business of Gaussian, Inc. or will provide
 assistance to any competitor of Gaussian, Inc.  The licensee
 of this program is prohibited from giving any competitor of
 Gaussian, Inc. access to this program.  By using this program,
 the user acknowledges that Gaussian, Inc. is engaged in the
 business of creating and licensing software in the field of
 computational chemistry and represents and warrants to the
 licensee that it is not a competitor of Gaussian, Inc. and that
 it will not use this program in any manner prohibited above.
 ---------------------------------------------------------------
  

 Cite this work as:
 Gaussian 09, Revision A.02,
 M. J. Frisch, G. W. Trucks, H. B. Schlegel, G. E. Scuseria, 
 M. A. Robb, J. R. Cheeseman, G. Scalmani, V. Barone, B. Mennucci, 
 G. A. Petersson, H. Nakatsuji, M. Caricato, X. Li, H. P. Hratchian, 
 A. F. Izmaylov, J. Bloino, G. Zheng, J. L. Sonnenberg, M. Hada, 
 M. Ehara, K. Toyota, R. Fukuda, J. Hasegawa, M. Ishida, T. Nakajima, 
 Y. Honda, O. Kitao, H. Nakai, T. Vreven, J. A. Montgomery, Jr., 
 J. E. Peralta, F. Ogliaro, M. Bearpark, J. J. Heyd, E. Brothers, 
 K. N. Kudin, V. N. Staroverov, R. Kobayashi, J. Normand, 
 K. Raghavachari, A. Rendell, J. C. Burant, S. S. Iyengar, J. Tomasi, 
 M. Cossi, N. Rega, J. M. Millam, M. Klene, J. E. Knox, J. B. Cross, 
 V. Bakken, C. Adamo, J. Jaramillo, R. Gomperts, R. E. Stratmann, 
 O. Yazyev, A. J. Austin, R. Cammi, C. Pomelli, J. W. Ochterski, 
 R. L. Martin, K. Morokuma, V. G. Zakrzewski, G. A. Voth, 
 P. Salvador, J. J. Dannenberg, S. Dapprich, A. D. Daniels, 
 O. Farkas, J. B. Foresman, J. V. Ortiz, J. Cioslowski, 
 and D. J. Fox, Gaussian, Inc., Wallingford CT, 2009.
 
 ******************************************
 Gaussian 09:  EM64L-G09RevA.02 11-Jun-2009
                 3-Nov-2010 
 ******************************************
 %chk=/state/partition1/wenxinzy/scratch/H_CH4_35.chk
 %nproc=8
 Will use up to    8 processors via shared memory.
 %mem=6000mb
 -------------------------------------------
 #p lc-blyp/6-311+g(3df,2p) nosymm scf=tight
 -------------------------------------------
 1/38=1/1;
 2/12=2,15=1,17=6,18=5,40=1/2;
 3/5=4,6=6,7=216,11=2,16=1,25=1,30=1,74=1000402/1,2,3;
 4//1;
 5/5=2,32=2,38=5/2;
 6/7=2,8=2,9=2,10=2,28=1/1;
 99/5=1,9=1/99;
 Leave Link    1 at Wed Nov  3 01:27:32 2010, MaxMem=  786432000 cpu:       0.3
 (Enter /share/apps/G09A02/g09/l101.exe)
 --------
 36 H_CH4
 --------
 Symbolic Z-matrix:
 Charge =  0 Multiplicity = 2
 C
 H1                   C    R1
 H2                   C    R2       H1   A1
 H3                   C    R2       H1   A1       H2    120.     0
 H4                   C    R2       H1   A1       H2   -120.     0
 H5                   H1   R3       C     180.     H2    0.       0
       Variables:
  R1                    1.08928                  
  R2                    1.08931                  
  A1                  109.46932                  
  R3                    2.72006                  
 
 NAtoms=      6 NQM=      6 NQMF=      0 NMic=      0 NMicF=      0 NTot=      6.
                    Isotopes and Nuclear Properties:
 (Nuclear quadrupole moments (NQMom) in fm**2, nuclear magnetic moments (NMagM)
  in nuclear magnetons)

  Atom         1           2           3           4           5           6
 IAtWgt=          12           1           1           1           1           1
 AtmWgt=  12.0000000   1.0078250   1.0078250   1.0078250   1.0078250   1.0078250
 NucSpn=           0           1           1           1           1           1
 AtZEff=   0.0000000   0.0000000   0.0000000   0.0000000   0.0000000   0.0000000
 NQMom=    0.0000000   0.0000000   0.0000000   0.0000000   0.0000000   0.0000000
 NMagM=    0.0000000   2.7928460   2.7928460   2.7928460   2.7928460   2.7928460
 Leave Link  101 at Wed Nov  3 01:27:32 2010, MaxMem=  786432000 cpu:       1.0
 (Enter /share/apps/G09A02/g09/l202.exe)
                          Input orientation:                          
 ---------------------------------------------------------------------
 Center     Atomic      Atomic             Coordinates (Angstroms)
 Number     Number       Type             X           Y           Z
 ---------------------------------------------------------------------
      1          6           0        0.000000    0.000000    0.000000
      2          1           0        0.000000    0.000000    1.089282
      3          1           0        1.027022    0.000000   -0.363069
      4          1           0       -0.513511   -0.889427   -0.363069
      5          1           0       -0.513511    0.889427   -0.363069
      6          1           0        0.000000    0.000000    3.809338
 ---------------------------------------------------------------------
                    Distance matrix (angstroms):
                    1          2          3          4          5
     1  C    0.000000
     2  H    1.089282   0.000000
     3  H    1.089309   1.778791   0.000000
     4  H    1.089309   1.778791   1.778854   0.000000
     5  H    1.089309   1.778791   1.778854   1.778854   0.000000
     6  H    3.809338   2.720057   4.296947   4.296947   4.296947
                    6
     6  H    0.000000
 Symmetry turned off by external request.
 Stoichiometry    CH5(2)
 Framework group  C3V[C3(HHC),3SGV(H)]
 Deg. of freedom     4
 Full point group                 C3V     NOp   6
 Rotational constants (GHZ):    158.4715440     29.8185572     29.8185572
 Leave Link  202 at Wed Nov  3 01:27:32 2010, MaxMem=  786432000 cpu:       0.1
 (Enter /share/apps/G09A02/g09/l301.exe)
 Standard basis: 6-311+G(3df,2p) (5D, 7F)
 Ernie: Thresh=  0.10000D-02 Tol=  0.10000D-05 Strict=F.
 Integral buffers will be    131072 words long.
 Raffenetti 2 integral format.
 Two-electron integral symmetry is turned off.
    84 basis functions,   113 primitive gaussians,    90 cartesian basis functions
     6 alpha electrons        5 beta electrons
       nuclear repulsion energy        14.8414969892 Hartrees.
 IExCor=10402 DFT=T Ex=LC-B+HF Corr=LYP ExCW=0 ScaHFX=  1.000000
 ScaDFX=  1.000000  1.000000  1.000000  1.000000 ScalE2=  1.000000  1.000000
 IRadAn=      0 IRanWt=     -1 IRanGd=            0 ICorTp=0
  HFx wShort=  0.000000 wLong=  0.470000 cFull=  0.000000 cShort=  0.000000 cLong=  1.000000
  DFx wShort=  0.000000 wLong=  0.470000 cFull=  0.000000 cShort=  0.000000 cLong=  1.000000
 NAtoms=    6 NActive=    6 NUniq=    6 SFac= 7.50D-01 NAtFMM=   80 NAOKFM=F Big=F
 Leave Link  301 at Wed Nov  3 01:27:32 2010, MaxMem=  786432000 cpu:       0.7
 (Enter /share/apps/G09A02/g09/l302.exe)
 NPDir=0 NMtPBC=     1 NCelOv=     1 NCel=       1 NClECP=     1 NCelD=      1
         NCelK=      1 NCelE2=     1 NClLst=     1 CellRange=     0.0.
 One-electron integrals computed using PRISM.
 NBasis=    84 RedAO= T  NBF=    84
 NBsUse=    84 1.00D-06 NBFU=    84
 Precomputing XC quadrature grid using
 IXCGrd= 2 IRadAn=           0 IRanWt=          -1 IRanGd=           0 AccXCQ= 1.00D-10.
 NRdTot=     384 NPtTot=       48740 NUsed=       51519 NTot=       51551
 NSgBfM=    90    90    90    90    90 NAtAll=     6     6.
 Leave Link  302 at Wed Nov  3 01:27:33 2010, MaxMem=  786432000 cpu:       2.7
 (Enter /share/apps/G09A02/g09/l303.exe)
 DipDrv:  MaxL=1.
 Leave Link  303 at Wed Nov  3 01:27:33 2010, MaxMem=  786432000 cpu:       0.9
 (Enter /share/apps/G09A02/g09/l401.exe)
 Harris functional with IExCor=10402 diagonalized for initial guess.
 ExpMin= 4.38D-02 ExpMax= 4.56D+03 ExpMxC= 6.82D+02 IAcc=2 IRadAn=         0 AccDes= 0.00D+00
 HarFok:  IExCor=10402 AccDes= 0.00D+00 IRadAn=         0 IDoV= 1
 ScaDFX=  1.000000  1.000000  1.000000  1.000000
 FoFCou: FMM=F IPFlag=           0 FMFlag=      100000 FMFlg1=           0
         NFxFlg=           0 DoJE=T BraDBF=F KetDBF=T FulRan=T
         Omega=  0.000000  0.000000  1.000000  0.000000  0.000000 ICntrl=     500 IOpCl=  0
         NMat0=    1 NMatS0=    1 NMatT0=    0 NMatD0=    1 NMtDS0=    0 NMtDT0=    0
         I1Cent=           4 NGrid=           0.
 Symmetry not used in FoFCou.
 Harris En= -38.5633748659154    
 Initial guess <Sx>= 0.0000 <Sy>= 0.0000 <Sz>= 0.5000 <S**2>= 0.7500 S= 0.5000
 Leave Link  401 at Wed Nov  3 01:27:33 2010, MaxMem=  786432000 cpu:       3.7
 (Enter /share/apps/G09A02/g09/l502.exe)
 UHF open shell SCF:
 Requested convergence on RMS density matrix=1.00D-08 within 128 cycles.
 Requested convergence on MAX density matrix=1.00D-06.
 Requested convergence on             energy=1.00D-06.
 No special actions if energy rises.
 Using DIIS extrapolation, IDIIS=  1040.
 Two-electron integral symmetry not used.
        51452 words used for storage of precomputed grid.
 IEnd=       95170 IEndB=       95170 NGot=   786432000 MDV=   786361661
 LenX=   786361661 LenY=   786353120
 Fock matrices will be formed incrementally for  20 cycles.

 Cycle   1  Pass 1  IDiag  1:
 FoFJK:  IHMeth= 1 ICntrl=     0 DoSepK=T KAlg= 1 I1Cent= 0 FoldK=F
 FoFCou: FMM=F IPFlag=           0 FMFlag=      100000 FMFlg1=           0
         NFxFlg=           0 DoJE=T BraDBF=F KetDBF=F FulRan=T
         Omega=  0.000000  0.000000  1.000000  0.000000  0.000000 ICntrl=     500 IOpCl=  0
         NMat0=    1 NMatS0=    1 NMatT0=    0 NMatD0=    1 NMtDS0=    0 NMtDT0=    0
         I1Cent=           0 NGrid=           0.
 Symmetry not used in FoFCou.
 E= -40.7993772187652    
 DIIS: error= 3.23D-02 at cycle   1 NSaved=   1.
 NSaved= 1 IEnMin= 1 EnMin= -40.7993772187652     IErMin= 1 ErrMin= 3.23D-02
 ErrMax= 3.23D-02 EMaxC= 1.00D-01 BMatC= 2.56D-01 BMatP= 2.56D-01
 IDIUse=3 WtCom= 6.77D-01 WtEn= 3.23D-01
 Coeff-Com:  0.100D+01
 Coeff-En:   0.100D+01
 Coeff:      0.100D+01
 Gap=     0.514 Goal=   None    Shift=    0.000
 Gap=     0.350 Goal=   None    Shift=    0.000
 GapD=    0.350 DampG=1.000 DampE=0.500 DampFc=0.5000 IDamp=-1.
 Damping current iteration by 5.00D-01
 RMSDP=4.56D-03 MaxDP=1.75D-01              OVMax= 1.61D-01

 Cycle   2  Pass 1  IDiag  1:
 RMSU=  1.77D-03    CP:  9.07D-01
 FoFJK:  IHMeth= 1 ICntrl=     0 DoSepK=T KAlg= 1 I1Cent= 0 FoldK=F
 E= -40.8412120159803     Delta-E=       -0.041834797215 Rises=F Damp=T
 DIIS: error= 1.21D-02 at cycle   2 NSaved=   2.
 NSaved= 2 IEnMin= 2 EnMin= -40.8412120159803     IErMin= 2 ErrMin= 1.21D-02
 ErrMax= 1.21D-02 EMaxC= 1.00D-01 BMatC= 2.18D-02 BMatP= 2.56D-01
 IDIUse=3 WtCom= 8.79D-01 WtEn= 1.21D-01
 Coeff-Com: -0.222D+00 0.122D+01
 Coeff-En:   0.000D+00 0.100D+01
 Coeff:     -0.196D+00 0.120D+01
 Gap=     0.566 Goal=   None    Shift=    0.000
 Gap=     0.470 Goal=   None    Shift=    0.000
 RMSDP=2.44D-03 MaxDP=1.14D-01 DE=-4.18D-02 OVMax= 4.52D-02

 Cycle   3  Pass 1  IDiag  1:
 RMSU=  8.86D-04    CP:  8.27D-01  1.99D+00
 FoFJK:  IHMeth= 1 ICntrl=     0 DoSepK=T KAlg= 1 I1Cent= 0 FoldK=F
 E= -40.8826557073583     Delta-E=       -0.041443691378 Rises=F Damp=F
 DIIS: error= 3.40D-03 at cycle   3 NSaved=   3.
 NSaved= 3 IEnMin= 3 EnMin= -40.8826557073583     IErMin= 3 ErrMin= 3.40D-03
 ErrMax= 3.40D-03 EMaxC= 1.00D-01 BMatC= 9.49D-04 BMatP= 2.18D-02
 IDIUse=3 WtCom= 9.66D-01 WtEn= 3.40D-02
 Coeff-Com:  0.422D-01-0.289D+00 0.125D+01
 Coeff-En:   0.000D+00 0.000D+00 0.100D+01
 Coeff:      0.408D-01-0.280D+00 0.124D+01
 Gap=     0.515 Goal=   None    Shift=    0.000
 Gap=     0.502 Goal=   None    Shift=    0.000
 RMSDP=6.00D-04 MaxDP=3.02D-02 DE=-4.14D-02 OVMax= 3.67D-02

 Cycle   4  Pass 1  IDiag  1:
 RMSU=  2.78D-04    CP:  8.11D-01  2.17D+00  1.30D+00
 FoFJK:  IHMeth= 1 ICntrl=     0 DoSepK=T KAlg= 1 I1Cent= 0 FoldK=F
 E= -40.8835836348628     Delta-E=       -0.000927927504 Rises=F Damp=F
 DIIS: error= 4.56D-04 at cycle   4 NSaved=   4.
 NSaved= 4 IEnMin= 4 EnMin= -40.8835836348628     IErMin= 4 ErrMin= 4.56D-04
 ErrMax= 4.56D-04 EMaxC= 1.00D-01 BMatC= 2.28D-05 BMatP= 9.49D-04
 IDIUse=3 WtCom= 9.95D-01 WtEn= 4.56D-03
 Coeff-Com: -0.413D-02-0.287D-02-0.107D+00 0.111D+01
 Coeff-En:   0.000D+00 0.000D+00 0.000D+00 0.100D+01
 Coeff:     -0.411D-02-0.286D-02-0.107D+00 0.111D+01
 Gap=     0.513 Goal=   None    Shift=    0.000
 Gap=     0.502 Goal=   None    Shift=    0.000
 RMSDP=9.03D-05 MaxDP=4.92D-03 DE=-9.28D-04 OVMax= 5.86D-03

 Cycle   5  Pass 1  IDiag  1:
 RMSU=  3.72D-05    CP:  8.09D-01  2.19D+00  1.33D+00  1.21D+00
 FoFJK:  IHMeth= 1 ICntrl=     0 DoSepK=T KAlg= 1 I1Cent= 0 FoldK=F
 E= -40.8836039903998     Delta-E=       -0.000020355537 Rises=F Damp=F
 DIIS: error= 6.15D-05 at cycle   5 NSaved=   5.
 NSaved= 5 IEnMin= 5 EnMin= -40.8836039903998     IErMin= 5 ErrMin= 6.15D-05
 ErrMax= 6.15D-05 EMaxC= 1.00D-01 BMatC= 2.59D-07 BMatP= 2.28D-05
 IDIUse=1 WtCom= 1.00D+00 WtEn= 0.00D+00
 Coeff-Com:  0.631D-03 0.307D-02 0.127D-01-0.250D+00 0.123D+01
 Coeff:      0.631D-03 0.307D-02 0.127D-01-0.250D+00 0.123D+01
 Gap=     0.513 Goal=   None    Shift=    0.000
 Gap=     0.502 Goal=   None    Shift=    0.000
 RMSDP=1.80D-05 MaxDP=7.39D-04 DE=-2.04D-05 OVMax= 4.88D-04

 Cycle   6  Pass 1  IDiag  1:
 RMSU=  2.03D-06    CP:  8.09D-01  2.19D+00  1.33D+00  1.22D+00  1.43D+00
 FoFJK:  IHMeth= 1 ICntrl=     0 DoSepK=T KAlg= 1 I1Cent= 0 FoldK=F
 E= -40.8836042292227     Delta-E=       -0.000000238823 Rises=F Damp=F
 DIIS: error= 9.74D-06 at cycle   6 NSaved=   6.
 NSaved= 6 IEnMin= 6 EnMin= -40.8836042292227     IErMin= 6 ErrMin= 9.74D-06
 ErrMax= 9.74D-06 EMaxC= 1.00D-01 BMatC= 1.22D-08 BMatP= 2.59D-07
 IDIUse=1 WtCom= 1.00D+00 WtEn= 0.00D+00
 Coeff-Com: -0.292D-04-0.748D-03-0.132D-02 0.439D-01-0.326D+00 0.128D+01
 Coeff:     -0.292D-04-0.748D-03-0.132D-02 0.439D-01-0.326D+00 0.128D+01
 Gap=     0.513 Goal=   None    Shift=    0.000
 Gap=     0.502 Goal=   None    Shift=    0.000
 RMSDP=3.33D-06 MaxDP=1.31D-04 DE=-2.39D-07 OVMax= 8.83D-05

 Cycle   7  Pass 1  IDiag  1:
 RMSU=  4.58D-07    CP:  8.09D-01  2.19D+00  1.33D+00  1.22D+00  1.51D+00
                    CP:  1.46D+00
 FoFJK:  IHMeth= 1 ICntrl=     0 DoSepK=T KAlg= 1 I1Cent= 0 FoldK=F
 E= -40.8836042409063     Delta-E=       -0.000000011684 Rises=F Damp=F
 DIIS: error= 4.05D-06 at cycle   7 NSaved=   7.
 NSaved= 7 IEnMin= 7 EnMin= -40.8836042409063     IErMin= 7 ErrMin= 4.05D-06
 ErrMax= 4.05D-06 EMaxC= 1.00D-01 BMatC= 1.04D-09 BMatP= 1.22D-08
 IDIUse=1 WtCom= 1.00D+00 WtEn= 0.00D+00
 Coeff-Com: -0.434D-04-0.108D-03-0.662D-03 0.109D-01-0.428D-01-0.125D+00
 Coeff-Com:  0.116D+01
 Coeff:     -0.434D-04-0.108D-03-0.662D-03 0.109D-01-0.428D-01-0.125D+00
 Coeff:      0.116D+01
 Gap=     0.513 Goal=   None    Shift=    0.000
 Gap=     0.502 Goal=   None    Shift=    0.000
 RMSDP=4.71D-07 MaxDP=1.30D-05 DE=-1.17D-08 OVMax= 2.17D-05

 Cycle   8  Pass 1  IDiag  1:
 RMSU=  1.05D-07    CP:  8.09D-01  2.19D+00  1.33D+00  1.22D+00  1.51D+00
                    CP:  1.57D+00  1.37D+00
 FoFJK:  IHMeth= 1 ICntrl=     0 DoSepK=T KAlg= 1 I1Cent= 0 FoldK=F
 E= -40.8836042417856     Delta-E=       -0.000000000879 Rises=F Damp=F
 DIIS: error= 1.58D-06 at cycle   8 NSaved=   8.
 NSaved= 8 IEnMin= 8 EnMin= -40.8836042417856     IErMin= 8 ErrMin= 1.58D-06
 ErrMax= 1.58D-06 EMaxC= 1.00D-01 BMatC= 1.46D-10 BMatP= 1.04D-09
 IDIUse=1 WtCom= 1.00D+00 WtEn= 0.00D+00
 Coeff-Com:  0.181D-04 0.129D-03 0.459D-03-0.968D-02 0.548D-01-0.944D-01
 Coeff-Com: -0.427D+00 0.148D+01
 Coeff:      0.181D-04 0.129D-03 0.459D-03-0.968D-02 0.548D-01-0.944D-01
 Coeff:     -0.427D+00 0.148D+01
 Gap=     0.513 Goal=   None    Shift=    0.000
 Gap=     0.502 Goal=   None    Shift=    0.000
 RMSDP=1.64D-07 MaxDP=3.20D-06 DE=-8.79D-10 OVMax= 1.01D-05

 Cycle   9  Pass 1  IDiag  1:
 RMSU=  2.96D-08    CP:  8.09D-01  2.19D+00  1.33D+00  1.22D+00  1.51D+00
                    CP:  1.59D+00  1.53D+00  1.82D+00
 FoFJK:  IHMeth= 1 ICntrl=     0 DoSepK=T KAlg= 1 I1Cent= 0 FoldK=F
 E= -40.8836042419159     Delta-E=       -0.000000000130 Rises=F Damp=F
 DIIS: error= 3.59D-07 at cycle   9 NSaved=   9.
 NSaved= 9 IEnMin= 9 EnMin= -40.8836042419159     IErMin= 9 ErrMin= 3.59D-07
 ErrMax= 3.59D-07 EMaxC= 1.00D-01 BMatC= 7.13D-12 BMatP= 1.46D-10
 IDIUse=1 WtCom= 1.00D+00 WtEn= 0.00D+00
 Coeff-Com: -0.738D-08-0.261D-04-0.756D-04 0.178D-02-0.112D-01 0.359D-01
 Coeff-Com:  0.206D-01-0.380D+00 0.133D+01
 Coeff:     -0.738D-08-0.261D-04-0.756D-04 0.178D-02-0.112D-01 0.359D-01
 Coeff:      0.206D-01-0.380D+00 0.133D+01
 Gap=     0.513 Goal=   None    Shift=    0.000
 Gap=     0.502 Goal=   None    Shift=    0.000
 RMSDP=4.29D-08 MaxDP=1.07D-06 DE=-1.30D-10 OVMax= 2.05D-06

 Cycle  10  Pass 1  IDiag  1:
 RMSU=  1.02D-08    CP:  8.09D-01  2.19D+00  1.33D+00  1.22D+00  1.51D+00
                    CP:  1.59D+00  1.55D+00  2.03D+00  1.44D+00
 FoFJK:  IHMeth= 1 ICntrl=     0 DoSepK=T KAlg= 1 I1Cent= 0 FoldK=F
 E= -40.8836042419231     Delta-E=       -0.000000000007 Rises=F Damp=F
 DIIS: error= 6.59D-08 at cycle  10 NSaved=  10.
 NSaved=10 IEnMin=10 EnMin= -40.8836042419231     IErMin=10 ErrMin= 6.59D-08
 ErrMax= 6.59D-08 EMaxC= 1.00D-01 BMatC= 3.30D-13 BMatP= 7.13D-12
 IDIUse=1 WtCom= 1.00D+00 WtEn= 0.00D+00
 Coeff-Com: -0.727D-06 0.988D-05 0.201D-04-0.597D-03 0.397D-02-0.159D-01
 Coeff-Com:  0.625D-02 0.142D+00-0.684D+00 0.155D+01
 Coeff:     -0.727D-06 0.988D-05 0.201D-04-0.597D-03 0.397D-02-0.159D-01
 Coeff:      0.625D-02 0.142D+00-0.684D+00 0.155D+01
 Gap=     0.513 Goal=   None    Shift=    0.000
 Gap=     0.502 Goal=   None    Shift=    0.000
 RMSDP=7.65D-09 MaxDP=1.37D-07 DE=-7.25D-12 OVMax= 3.78D-07

 SCF Done:  E(ULC-B+HF-LYP) =  -40.8836042419     A.U. after   10 cycles
             Convg  =    0.7653D-08             -V/T =  2.0051
 <Sx>= 0.0000 <Sy>= 0.0000 <Sz>= 0.5000 <S**2>= 0.7500 S= 0.5000
 <L.S>= 0.000000000000E+00
 KE= 4.067607639288D+01 PE=-1.238356094531D+02 EE= 2.743443182909D+01
 Annihilation of the first spin contaminant:
 S**2 before annihilation     0.7500,   after     0.7500
 Leave Link  502 at Wed Nov  3 01:28:02 2010, MaxMem=  786432000 cpu:     231.2
 (Enter /share/apps/G09A02/g09/l601.exe)
 Copying SCF densities to generalized density rwf, IOpCl= 1 IROHF=0.

 **********************************************************************

            Population analysis using the SCF density.

 **********************************************************************

 Alpha  occ. eigenvalues --  -10.11332  -0.85954  -0.52711  -0.52526  -0.52526
 Alpha  occ. eigenvalues --   -0.44970
 Alpha virt. eigenvalues --    0.06332   0.09640   0.09640   0.10790   0.22669
 Alpha virt. eigenvalues --    0.22669   0.23248   0.27221   0.36192   0.36817
 Alpha virt. eigenvalues --    0.36817   0.41859   0.41859   0.43305   0.63689
 Alpha virt. eigenvalues --    0.64689   0.64689   0.69055   0.69055   0.72027
 Alpha virt. eigenvalues --    0.74212   0.80067   0.80279   0.80279   0.95979
 Alpha virt. eigenvalues --    0.99180   0.99208   0.99208   1.10254   1.10254
 Alpha virt. eigenvalues --    1.25220   1.25220   1.27247   1.40976   1.40976
 Alpha virt. eigenvalues --    1.43373   1.69041   2.06616   2.06616   2.07838
 Alpha virt. eigenvalues --    2.07838   2.08241   2.34368   2.51808   2.78773
 Alpha virt. eigenvalues --    2.78773   2.80469   3.08996   3.08996   3.09013
 Alpha virt. eigenvalues --    3.43923   3.43923   3.45073   3.65020   3.65185
 Alpha virt. eigenvalues --    3.65185   3.80299   3.80299   3.90460   4.07917
 Alpha virt. eigenvalues --    4.31081   4.31081   4.32552   4.35658   4.35658
 Alpha virt. eigenvalues --    4.58743   4.58743   4.58745   5.01214   5.89375
 Alpha virt. eigenvalues --    5.89375   5.89386   7.30304   7.30304   7.91476
 Alpha virt. eigenvalues --    7.91476   7.92218  24.29283
  Beta  occ. eigenvalues --  -10.11321  -0.85921  -0.52519  -0.52519  -0.52519
  Beta virt. eigenvalues --   -0.02337   0.06627   0.09543   0.09544   0.11218
  Beta virt. eigenvalues --    0.22656   0.22656   0.23596   0.27221   0.36805
  Beta virt. eigenvalues --    0.36805   0.39498   0.41840   0.41840   0.46516
  Beta virt. eigenvalues --    0.64701   0.64728   0.64728   0.72058   0.73229
  Beta virt. eigenvalues --    0.73229   0.74985   0.80109   0.80279   0.80279
  Beta virt. eigenvalues --    0.97672   0.99180   0.99201   0.99201   1.10250
  Beta virt. eigenvalues --    1.10250   1.25216   1.25216   1.27332   1.40978
  Beta virt. eigenvalues --    1.40978   1.43269   1.69026   2.06627   2.06627
  Beta virt. eigenvalues --    2.07853   2.07853   2.08256   2.51785   2.55359
  Beta virt. eigenvalues --    2.78783   2.78783   2.80502   3.09017   3.09019
  Beta virt. eigenvalues --    3.09019   3.43934   3.43934   3.45059   3.65168
  Beta virt. eigenvalues --    3.65232   3.65232   3.95828   3.95828   4.05361
  Beta virt. eigenvalues --    4.07953   4.31084   4.31084   4.32826   4.35658
  Beta virt. eigenvalues --    4.35658   4.58749   4.58749   4.58749   5.01226
  Beta virt. eigenvalues --    5.89382   5.89382   5.89404   7.30335   7.30335
  Beta virt. eigenvalues --    7.91495   7.91496   7.92260  24.29297
          Condensed to atoms (all electrons):
              1          2          3          4          5          6
     1  C    5.064934   0.396236   0.401577   0.401577   0.401577   0.002716
     2  H    0.396236   0.490319  -0.017439  -0.017439  -0.017439  -0.001186
     3  H    0.401577  -0.017439   0.483858  -0.017150  -0.017150  -0.000063
     4  H    0.401577  -0.017439  -0.017150   0.483857  -0.017150  -0.000063
     5  H    0.401577  -0.017439  -0.017150  -0.017150   0.483857  -0.000063
     6  H    0.002716  -0.001186  -0.000063  -0.000063  -0.000063   0.996089
 Mulliken atomic charges:
              1
     1  C   -0.668617
     2  H    0.166948
     3  H    0.166366
     4  H    0.166367
     5  H    0.166367
     6  H    0.002568
 Sum of Mulliken atomic charges =   0.00000
 Mulliken charges with hydrogens summed into heavy atoms:
              1
     1  C    0.000000
 Sum of Mulliken charges with hydrogens summed into heavy atoms =   0.00000
          Atomic-Atomic Spin Densities.
              1          2          3          4          5          6
     1  C    0.013992   0.000659  -0.000327  -0.000327  -0.000327   0.002154
     2  H    0.000659  -0.012160   0.000793   0.000793   0.000793  -0.002167
     3  H   -0.000327   0.000793  -0.000162  -0.000172  -0.000172  -0.000045
     4  H   -0.000327   0.000793  -0.000172  -0.000163  -0.000172  -0.000045
     5  H   -0.000327   0.000793  -0.000172  -0.000172  -0.000163  -0.000045
     6  H    0.002154  -0.002167  -0.000045  -0.000045  -0.000045   0.995862
 Mulliken atomic spin densities:
              1
     1  C    0.015825
     2  H   -0.011288
     3  H   -0.000084
     4  H   -0.000084
     5  H   -0.000084
     6  H    0.995715
 Sum of Mulliken atomic spin densities =   1.00000
 Electronic spatial extent (au):  <R**2>=             90.8953
 Charge=              0.0000 electrons
 Dipole moment (field-independent basis, Debye):
    X=              0.0000    Y=              0.0000    Z=              0.0093  Tot=              0.0093
 Quadrupole moment (field-independent basis, Debye-Ang):
   XX=             -9.9504   YY=             -9.9504   ZZ=             -9.8593
   XY=              0.0000   XZ=              0.0000   YZ=              0.0000
 Traceless Quadrupole moment (field-independent basis, Debye-Ang):
   XX=             -0.0304   YY=             -0.0304   ZZ=              0.0608
   XY=              0.0000   XZ=              0.0000   YZ=              0.0000
 Octapole moment (field-independent basis, Debye-Ang**2):
  XXX=              0.6628  YYY=              0.0000  ZZZ=            -14.8754  XYY=             -0.6628
  XXY=              0.0000  XXZ=             -5.9191  XZZ=              0.0000  YZZ=              0.0000
  YYZ=             -5.9191  XYZ=              0.0000
 Hexadecapole moment (field-independent basis, Debye-Ang**3):
 XXXX=            -18.4950 YYYY=            -18.4950 ZZZZ=           -139.7892 XXXY=              0.0000
 XXXZ=             -0.4217 YYYX=              0.0000 YYYZ=              0.0000 ZZZX=              0.0000
 ZZZY=              0.0000 XXYY=             -6.1650 XXZZ=            -27.1858 YYZZ=            -27.1858
 XXYZ=              0.0000 YYXZ=              0.4217 ZZXY=              0.0000
 N-N= 1.484149698917D+01 E-N=-1.845492330591D+02  KE= 6.076694461681D+01
                          Isotropic Fermi Contact Couplings
        Atom                 a.u.       MegaHertz       Gauss      10(-4) cm-1
     1  C(13)              0.00222       2.49236       0.88934       0.83136
     2  H(1)               0.00028       1.25215       0.44680       0.41767
     3  H(1)              -0.00002      -0.09696      -0.03460      -0.03234
     4  H(1)              -0.00002      -0.09695      -0.03460      -0.03234
     5  H(1)              -0.00002      -0.09695      -0.03460      -0.03234
     6  H(1)               0.28621    1279.34636     456.50258     426.74401
 --------------------------------------------------------
       Center         ----  Spin Dipole Couplings  ----
                      3XX-RR        3YY-RR        3ZZ-RR
 --------------------------------------------------------
     1   Atom       -0.006544     -0.006544      0.013088
     2   Atom       -0.008320     -0.008320      0.016641
     3   Atom       -0.001131     -0.002227      0.003358
     4   Atom       -0.001953     -0.001405      0.003358
     5   Atom       -0.001953     -0.001405      0.003358
     6   Atom        0.000073      0.000073     -0.000146
 --------------------------------------------------------
                        XY            XZ            YZ
 --------------------------------------------------------
     1   Atom        0.000000      0.000000      0.000000
     2   Atom        0.000000      0.000000      0.000000
     3   Atom        0.000000     -0.001488      0.000000
     4   Atom        0.000474      0.000744      0.001289
     5   Atom       -0.000474      0.000744     -0.001289
     6   Atom        0.000000      0.000000      0.000000
 --------------------------------------------------------


 ---------------------------------------------------------------------------------
              Anisotropic Spin Dipole Couplings in Principal Axis System
 ---------------------------------------------------------------------------------

       Atom             a.u.   MegaHertz   Gauss  10(-4) cm-1        Axes

              Baa    -0.0065    -0.878    -0.313    -0.293  0.0000  1.0000  0.0000
     1 C(13)  Bbb    -0.0065    -0.878    -0.313    -0.293  1.0000  0.0000  0.0000
              Bcc     0.0131     1.756     0.627     0.586  0.0000  0.0000  1.0000
 
              Baa    -0.0083    -4.439    -1.584    -1.481  1.0000  0.0000  0.0000
     2 H(1)   Bbb    -0.0083    -4.439    -1.584    -1.481  0.0000  1.0000  0.0000
              Bcc     0.0166     8.879     3.168     2.962  0.0000  0.0000  1.0000
 
              Baa    -0.0022    -1.188    -0.424    -0.396  0.0000  1.0000  0.0000
     3 H(1)   Bbb    -0.0016    -0.843    -0.301    -0.281  0.9575  0.0000  0.2886
              Bcc     0.0038     2.031     0.725     0.677 -0.2886  0.0000  0.9575
 
              Baa    -0.0022    -1.188    -0.424    -0.396  0.8660 -0.5000  0.0000
     4 H(1)   Bbb    -0.0016    -0.843    -0.301    -0.281  0.4787  0.8292 -0.2886
              Bcc     0.0038     2.031     0.725     0.677  0.1443  0.2499  0.9575
 
              Baa    -0.0022    -1.188    -0.424    -0.396  0.8660  0.5000  0.0000
     5 H(1)   Bbb    -0.0016    -0.843    -0.301    -0.281 -0.4787  0.8292  0.2886
              Bcc     0.0038     2.031     0.725     0.677  0.1443 -0.2499  0.9575
 
              Baa    -0.0001    -0.078    -0.028    -0.026  0.0000  0.0000  1.0000
     6 H(1)   Bbb     0.0001     0.039     0.014     0.013  1.0000  0.0000  0.0000
              Bcc     0.0001     0.039     0.014     0.013  0.0000  1.0000  0.0000
 

 ---------------------------------------------------------------------------------

 No NMR shielding tensors so no spin-rotation constants.
 Leave Link  601 at Wed Nov  3 01:28:03 2010, MaxMem=  786432000 cpu:       3.8
 (Enter /share/apps/G09A02/g09/l9999.exe)
 1\1\GINC-COMPUTE-0-7\SP\ULC-BLYP\6-311+G(3df,2p)\C1H5(2)\WENXINZY\03-N
 ov-2010\0\\#p lc-blyp/6-311+g(3df,2p) nosymm scf=tight\\36 H_CH4\\0,2\
 C\H,1,1.0892816\H,1,1.0893086,2,109.4693237\H,1,1.0893086,2,109.469323
 7,3,120.,0\H,1,1.0893086,2,109.4693237,3,-120.,0\H,2,2.7200565,1,180.,
 3,0.,0\\Version=EM64L-G09RevA.02\HF=-40.8836042\S2=0.750044\S2-1=0.\S2
 A=0.75\RMSD=7.653e-09\Dipole=0.0000003,0.,0.0036708\Quadrupole=-0.0225
 88,-0.0225854,0.0451734,0.,-0.0000005,0.\PG=C03V [C3(H1H1C1),3SGV(H1)]
 \\@


 THERE ARE PEOPLE SO ADDICTED TO EXAGERATING THEY
 CAN'T TELL THE TRUTH WITHOUT LYING. -- FORTUNE COOKIE
 Job cpu time:  0 days  0 hours  4 minutes  5.8 seconds.
 File lengths (MBytes):  RWF=      9 Int=      0 D2E=      0 Chk=      1 Scr=      1
 Normal termination of Gaussian 09 at Wed Nov  3 01:28:03 2010.
