 Entering Gaussian System, Link 0=/share/apps/G09A02/g09/g09
 Input=./.script12553/Job_H_CH4_34.com
 Output=./.script12553/Job_H_CH4_34.log
 Initial command:
 /share/apps/G09A02/g09/l1.exe /state/partition1/wenxinzy/scratch/Gau-16034.inp -scrdir=/state/partition1/wenxinzy/scratch/
 Default is to use a total of   8 processors:
                                8 via shared-memory
                                1 via Linda
 Entering Link 1 = /share/apps/G09A02/g09/l1.exe PID=     16035.
  
 Copyright (c) 1988,1990,1992,1993,1995,1998,2003,2009, Gaussian, Inc.
                  All Rights Reserved.
  
 This is part of the Gaussian(R) 09 program.  It is based on
 the Gaussian(R) 03 system (copyright 2003, Gaussian, Inc.),
 the Gaussian(R) 98 system (copyright 1998, Gaussian, Inc.),
 the Gaussian(R) 94 system (copyright 1995, Gaussian, Inc.),
 the Gaussian 92(TM) system (copyright 1992, Gaussian, Inc.),
 the Gaussian 90(TM) system (copyright 1990, Gaussian, Inc.),
 the Gaussian 88(TM) system (copyright 1988, Gaussian, Inc.),
 the Gaussian 86(TM) system (copyright 1986, Carnegie Mellon
 University), and the Gaussian 82(TM) system (copyright 1983,
 Carnegie Mellon University). Gaussian is a federally registered
 trademark of Gaussian, Inc.
  
 This software contains proprietary and confidential information,
 including trade secrets, belonging to Gaussian, Inc.
  
 This software is provided under written license and may be
 used, copied, transmitted, or stored only in accord with that
 written license.
  
 The following legend is applicable only to US Government
 contracts under FAR:
  
                    RESTRICTED RIGHTS LEGEND
  
 Use, reproduction and disclosure by the US Government is
 subject to restrictions as set forth in subparagraphs (a)
 and (c) of the Commercial Computer Software - Restricted
 Rights clause in FAR 52.227-19.
  
 Gaussian, Inc.
 340 Quinnipiac St., Bldg. 40, Wallingford CT 06492
  
  
 ---------------------------------------------------------------
 Warning -- This program may not be used in any manner that
 competes with the business of Gaussian, Inc. or will provide
 assistance to any competitor of Gaussian, Inc.  The licensee
 of this program is prohibited from giving any competitor of
 Gaussian, Inc. access to this program.  By using this program,
 the user acknowledges that Gaussian, Inc. is engaged in the
 business of creating and licensing software in the field of
 computational chemistry and represents and warrants to the
 licensee that it is not a competitor of Gaussian, Inc. and that
 it will not use this program in any manner prohibited above.
 ---------------------------------------------------------------
  

 Cite this work as:
 Gaussian 09, Revision A.02,
 M. J. Frisch, G. W. Trucks, H. B. Schlegel, G. E. Scuseria, 
 M. A. Robb, J. R. Cheeseman, G. Scalmani, V. Barone, B. Mennucci, 
 G. A. Petersson, H. Nakatsuji, M. Caricato, X. Li, H. P. Hratchian, 
 A. F. Izmaylov, J. Bloino, G. Zheng, J. L. Sonnenberg, M. Hada, 
 M. Ehara, K. Toyota, R. Fukuda, J. Hasegawa, M. Ishida, T. Nakajima, 
 Y. Honda, O. Kitao, H. Nakai, T. Vreven, J. A. Montgomery, Jr., 
 J. E. Peralta, F. Ogliaro, M. Bearpark, J. J. Heyd, E. Brothers, 
 K. N. Kudin, V. N. Staroverov, R. Kobayashi, J. Normand, 
 K. Raghavachari, A. Rendell, J. C. Burant, S. S. Iyengar, J. Tomasi, 
 M. Cossi, N. Rega, J. M. Millam, M. Klene, J. E. Knox, J. B. Cross, 
 V. Bakken, C. Adamo, J. Jaramillo, R. Gomperts, R. E. Stratmann, 
 O. Yazyev, A. J. Austin, R. Cammi, C. Pomelli, J. W. Ochterski, 
 R. L. Martin, K. Morokuma, V. G. Zakrzewski, G. A. Voth, 
 P. Salvador, J. J. Dannenberg, S. Dapprich, A. D. Daniels, 
 O. Farkas, J. B. Foresman, J. V. Ortiz, J. Cioslowski, 
 and D. J. Fox, Gaussian, Inc., Wallingford CT, 2009.
 
 ******************************************
 Gaussian 09:  EM64L-G09RevA.02 11-Jun-2009
                 3-Nov-2010 
 ******************************************
 %chk=/state/partition1/wenxinzy/scratch/H_CH4_34.chk
 %nproc=8
 Will use up to    8 processors via shared memory.
 %mem=6000mb
 -------------------------------------------
 #p lc-blyp/6-311+g(3df,2p) nosymm scf=tight
 -------------------------------------------
 1/38=1/1;
 2/12=2,15=1,17=6,18=5,40=1/2;
 3/5=4,6=6,7=216,11=2,16=1,25=1,30=1,74=1000402/1,2,3;
 4//1;
 5/5=2,32=2,38=5/2;
 6/7=2,8=2,9=2,10=2,28=1/1;
 99/5=1,9=1/99;
 Leave Link    1 at Wed Nov  3 01:27:01 2010, MaxMem=  786432000 cpu:       0.3
 (Enter /share/apps/G09A02/g09/l101.exe)
 --------
 35 H_CH4
 --------
 Symbolic Z-matrix:
 Charge =  0 Multiplicity = 2
 C
 H1                   C    R1
 H2                   C    R2       H1   A1
 H3                   C    R2       H1   A1       H2    120.     0
 H4                   C    R2       H1   A1       H2   -120.     0
 H5                   H1   R3       C     180.     H2    0.       0
       Variables:
  R1                    1.08929                  
  R2                    1.08931                  
  A1                  109.46949                  
  R3                    2.67965                  
 
 NAtoms=      6 NQM=      6 NQMF=      0 NMic=      0 NMicF=      0 NTot=      6.
                    Isotopes and Nuclear Properties:
 (Nuclear quadrupole moments (NQMom) in fm**2, nuclear magnetic moments (NMagM)
  in nuclear magnetons)

  Atom         1           2           3           4           5           6
 IAtWgt=          12           1           1           1           1           1
 AtmWgt=  12.0000000   1.0078250   1.0078250   1.0078250   1.0078250   1.0078250
 NucSpn=           0           1           1           1           1           1
 AtZEff=   0.0000000   0.0000000   0.0000000   0.0000000   0.0000000   0.0000000
 NQMom=    0.0000000   0.0000000   0.0000000   0.0000000   0.0000000   0.0000000
 NMagM=    0.0000000   2.7928460   2.7928460   2.7928460   2.7928460   2.7928460
 Leave Link  101 at Wed Nov  3 01:27:01 2010, MaxMem=  786432000 cpu:       1.2
 (Enter /share/apps/G09A02/g09/l202.exe)
                          Input orientation:                          
 ---------------------------------------------------------------------
 Center     Atomic      Atomic             Coordinates (Angstroms)
 Number     Number       Type             X           Y           Z
 ---------------------------------------------------------------------
      1          6           0        0.000000    0.000000    0.000000
      2          1           0        0.000000    0.000000    1.089289
      3          1           0        1.027024    0.000000   -0.363073
      4          1           0       -0.513512   -0.889429   -0.363073
      5          1           0       -0.513512    0.889429   -0.363073
      6          1           0        0.000000    0.000000    3.768943
 ---------------------------------------------------------------------
                    Distance matrix (angstroms):
                    1          2          3          4          5
     1  C    0.000000
     2  H    1.089289   0.000000
     3  H    1.089312   1.778802   0.000000
     4  H    1.089312   1.778802   1.778859   0.000000
     5  H    1.089312   1.778802   1.778859   1.778859   0.000000
     6  H    3.768943   2.679654   4.257738   4.257738   4.257738
                    6
     6  H    0.000000
 Symmetry turned off by external request.
 Stoichiometry    CH5(2)
 Framework group  C3V[C3(HHC),3SGV(H)]
 Deg. of freedom     4
 Full point group                 C3V     NOp   6
 Rotational constants (GHZ):    158.4707840     30.3380849     30.3380849
 Leave Link  202 at Wed Nov  3 01:27:01 2010, MaxMem=  786432000 cpu:       0.0
 (Enter /share/apps/G09A02/g09/l301.exe)
 Standard basis: 6-311+G(3df,2p) (5D, 7F)
 Ernie: Thresh=  0.10000D-02 Tol=  0.10000D-05 Strict=F.
 Integral buffers will be    131072 words long.
 Raffenetti 2 integral format.
 Two-electron integral symmetry is turned off.
    84 basis functions,   113 primitive gaussians,    90 cartesian basis functions
     6 alpha electrons        5 beta electrons
       nuclear repulsion energy        14.8567080954 Hartrees.
 IExCor=10402 DFT=T Ex=LC-B+HF Corr=LYP ExCW=0 ScaHFX=  1.000000
 ScaDFX=  1.000000  1.000000  1.000000  1.000000 ScalE2=  1.000000  1.000000
 IRadAn=      0 IRanWt=     -1 IRanGd=            0 ICorTp=0
  HFx wShort=  0.000000 wLong=  0.470000 cFull=  0.000000 cShort=  0.000000 cLong=  1.000000
  DFx wShort=  0.000000 wLong=  0.470000 cFull=  0.000000 cShort=  0.000000 cLong=  1.000000
 NAtoms=    6 NActive=    6 NUniq=    6 SFac= 7.50D-01 NAtFMM=   80 NAOKFM=F Big=F
 Leave Link  301 at Wed Nov  3 01:27:01 2010, MaxMem=  786432000 cpu:       0.7
 (Enter /share/apps/G09A02/g09/l302.exe)
 NPDir=0 NMtPBC=     1 NCelOv=     1 NCel=       1 NClECP=     1 NCelD=      1
         NCelK=      1 NCelE2=     1 NClLst=     1 CellRange=     0.0.
 One-electron integrals computed using PRISM.
 NBasis=    84 RedAO= T  NBF=    84
 NBsUse=    84 1.00D-06 NBFU=    84
 Precomputing XC quadrature grid using
 IXCGrd= 2 IRadAn=           0 IRanWt=          -1 IRanGd=           0 AccXCQ= 1.00D-10.
 NRdTot=     384 NPtTot=       48740 NUsed=       51519 NTot=       51551
 NSgBfM=    90    90    90    90    90 NAtAll=     6     6.
 Leave Link  302 at Wed Nov  3 01:27:01 2010, MaxMem=  786432000 cpu:       2.6
 (Enter /share/apps/G09A02/g09/l303.exe)
 DipDrv:  MaxL=1.
 Leave Link  303 at Wed Nov  3 01:27:02 2010, MaxMem=  786432000 cpu:       1.1
 (Enter /share/apps/G09A02/g09/l401.exe)
 Harris functional with IExCor=10402 diagonalized for initial guess.
 ExpMin= 4.38D-02 ExpMax= 4.56D+03 ExpMxC= 6.82D+02 IAcc=2 IRadAn=         0 AccDes= 0.00D+00
 HarFok:  IExCor=10402 AccDes= 0.00D+00 IRadAn=         0 IDoV= 1
 ScaDFX=  1.000000  1.000000  1.000000  1.000000
 FoFCou: FMM=F IPFlag=           0 FMFlag=      100000 FMFlg1=           0
         NFxFlg=           0 DoJE=T BraDBF=F KetDBF=T FulRan=T
         Omega=  0.000000  0.000000  1.000000  0.000000  0.000000 ICntrl=     500 IOpCl=  0
         NMat0=    1 NMatS0=    1 NMatT0=    0 NMatD0=    1 NMtDS0=    0 NMtDT0=    0
         I1Cent=           4 NGrid=           0.
 Symmetry not used in FoFCou.
 Harris En= -38.5634309076438    
 Initial guess <Sx>= 0.0000 <Sy>= 0.0000 <Sz>= 0.5000 <S**2>= 0.7500 S= 0.5000
 Leave Link  401 at Wed Nov  3 01:27:02 2010, MaxMem=  786432000 cpu:       3.8
 (Enter /share/apps/G09A02/g09/l502.exe)
 UHF open shell SCF:
 Requested convergence on RMS density matrix=1.00D-08 within 128 cycles.
 Requested convergence on MAX density matrix=1.00D-06.
 Requested convergence on             energy=1.00D-06.
 No special actions if energy rises.
 Using DIIS extrapolation, IDIIS=  1040.
 Two-electron integral symmetry not used.
        51452 words used for storage of precomputed grid.
 IEnd=       95170 IEndB=       95170 NGot=   786432000 MDV=   786361661
 LenX=   786361661 LenY=   786353120
 Fock matrices will be formed incrementally for  20 cycles.

 Cycle   1  Pass 1  IDiag  1:
 FoFJK:  IHMeth= 1 ICntrl=     0 DoSepK=T KAlg= 1 I1Cent= 0 FoldK=F
 FoFCou: FMM=F IPFlag=           0 FMFlag=      100000 FMFlg1=           0
         NFxFlg=           0 DoJE=T BraDBF=F KetDBF=F FulRan=T
         Omega=  0.000000  0.000000  1.000000  0.000000  0.000000 ICntrl=     500 IOpCl=  0
         NMat0=    1 NMatS0=    1 NMatT0=    0 NMatD0=    1 NMtDS0=    0 NMtDT0=    0
         I1Cent=           0 NGrid=           0.
 Symmetry not used in FoFCou.
 E= -40.7991820208067    
 DIIS: error= 3.42D-02 at cycle   1 NSaved=   1.
 NSaved= 1 IEnMin= 1 EnMin= -40.7991820208067     IErMin= 1 ErrMin= 3.42D-02
 ErrMax= 3.42D-02 EMaxC= 1.00D-01 BMatC= 2.56D-01 BMatP= 2.56D-01
 IDIUse=3 WtCom= 6.58D-01 WtEn= 3.42D-01
 Coeff-Com:  0.100D+01
 Coeff-En:   0.100D+01
 Coeff:      0.100D+01
 Gap=     0.513 Goal=   None    Shift=    0.000
 Gap=     0.350 Goal=   None    Shift=    0.000
 GapD=    0.350 DampG=1.000 DampE=0.500 DampFc=0.5000 IDamp=-1.
 Damping current iteration by 5.00D-01
 RMSDP=4.61D-03 MaxDP=1.76D-01              OVMax= 1.60D-01

 Cycle   2  Pass 1  IDiag  1:
 RMSU=  1.79D-03    CP:  9.05D-01
 FoFJK:  IHMeth= 1 ICntrl=     0 DoSepK=T KAlg= 1 I1Cent= 0 FoldK=F
 E= -40.8411110029872     Delta-E=       -0.041928982180 Rises=F Damp=T
 DIIS: error= 1.19D-02 at cycle   2 NSaved=   2.
 NSaved= 2 IEnMin= 2 EnMin= -40.8411110029872     IErMin= 2 ErrMin= 1.19D-02
 ErrMax= 1.19D-02 EMaxC= 1.00D-01 BMatC= 2.18D-02 BMatP= 2.56D-01
 IDIUse=3 WtCom= 8.81D-01 WtEn= 1.19D-01
 Coeff-Com: -0.222D+00 0.122D+01
 Coeff-En:   0.000D+00 0.100D+01
 Coeff:     -0.196D+00 0.120D+01
 Gap=     0.565 Goal=   None    Shift=    0.000
 Gap=     0.470 Goal=   None    Shift=    0.000
 RMSDP=2.47D-03 MaxDP=1.13D-01 DE=-4.19D-02 OVMax= 4.54D-02

 Cycle   3  Pass 1  IDiag  1:
 RMSU=  8.90D-04    CP:  8.24D-01  1.99D+00
 FoFJK:  IHMeth= 1 ICntrl=     0 DoSepK=T KAlg= 1 I1Cent= 0 FoldK=F
 E= -40.8826574534034     Delta-E=       -0.041546450416 Rises=F Damp=F
 DIIS: error= 3.34D-03 at cycle   3 NSaved=   3.
 NSaved= 3 IEnMin= 3 EnMin= -40.8826574534034     IErMin= 3 ErrMin= 3.34D-03
 ErrMax= 3.34D-03 EMaxC= 1.00D-01 BMatC= 9.51D-04 BMatP= 2.18D-02
 IDIUse=3 WtCom= 9.67D-01 WtEn= 3.34D-02
 Coeff-Com:  0.417D-01-0.288D+00 0.125D+01
 Coeff-En:   0.000D+00 0.000D+00 0.100D+01
 Coeff:      0.403D-01-0.279D+00 0.124D+01
 Gap=     0.515 Goal=   None    Shift=    0.000
 Gap=     0.502 Goal=   None    Shift=    0.000
 RMSDP=6.06D-04 MaxDP=3.01D-02 DE=-4.15D-02 OVMax= 3.67D-02

 Cycle   4  Pass 1  IDiag  1:
 RMSU=  2.82D-04    CP:  8.07D-01  2.18D+00  1.30D+00
 FoFJK:  IHMeth= 1 ICntrl=     0 DoSepK=T KAlg= 1 I1Cent= 0 FoldK=F
 E= -40.8835889182787     Delta-E=       -0.000931464875 Rises=F Damp=F
 DIIS: error= 4.49D-04 at cycle   4 NSaved=   4.
 NSaved= 4 IEnMin= 4 EnMin= -40.8835889182787     IErMin= 4 ErrMin= 4.49D-04
 ErrMax= 4.49D-04 EMaxC= 1.00D-01 BMatC= 2.31D-05 BMatP= 9.51D-04
 IDIUse=3 WtCom= 9.96D-01 WtEn= 4.49D-03
 Coeff-Com: -0.416D-02-0.278D-02-0.108D+00 0.111D+01
 Coeff-En:   0.000D+00 0.000D+00 0.000D+00 0.100D+01
 Coeff:     -0.414D-02-0.277D-02-0.107D+00 0.111D+01
 Gap=     0.513 Goal=   None    Shift=    0.000
 Gap=     0.502 Goal=   None    Shift=    0.000
 RMSDP=9.04D-05 MaxDP=4.92D-03 DE=-9.31D-04 OVMax= 5.87D-03

 Cycle   5  Pass 1  IDiag  1:
 RMSU=  3.67D-05    CP:  8.06D-01  2.20D+00  1.33D+00  1.20D+00
 FoFJK:  IHMeth= 1 ICntrl=     0 DoSepK=T KAlg= 1 I1Cent= 0 FoldK=F
 E= -40.8836094837276     Delta-E=       -0.000020565449 Rises=F Damp=F
 DIIS: error= 6.07D-05 at cycle   5 NSaved=   5.
 NSaved= 5 IEnMin= 5 EnMin= -40.8836094837276     IErMin= 5 ErrMin= 6.07D-05
 ErrMax= 6.07D-05 EMaxC= 1.00D-01 BMatC= 2.66D-07 BMatP= 2.31D-05
 IDIUse=1 WtCom= 1.00D+00 WtEn= 0.00D+00
 Coeff-Com:  0.637D-03 0.310D-02 0.129D-01-0.252D+00 0.124D+01
 Coeff:      0.637D-03 0.310D-02 0.129D-01-0.252D+00 0.124D+01
 Gap=     0.513 Goal=   None    Shift=    0.000
 Gap=     0.502 Goal=   None    Shift=    0.000
 RMSDP=1.78D-05 MaxDP=7.28D-04 DE=-2.06D-05 OVMax= 4.86D-04

 Cycle   6  Pass 1  IDiag  1:
 RMSU=  2.03D-06    CP:  8.06D-01  2.19D+00  1.33D+00  1.22D+00  1.44D+00
 FoFJK:  IHMeth= 1 ICntrl=     0 DoSepK=T KAlg= 1 I1Cent= 0 FoldK=F
 E= -40.8836097339347     Delta-E=       -0.000000250207 Rises=F Damp=F
 DIIS: error= 1.07D-05 at cycle   6 NSaved=   6.
 NSaved= 6 IEnMin= 6 EnMin= -40.8836097339347     IErMin= 6 ErrMin= 1.07D-05
 ErrMax= 1.07D-05 EMaxC= 1.00D-01 BMatC= 1.28D-08 BMatP= 2.66D-07
 IDIUse=1 WtCom= 1.00D+00 WtEn= 0.00D+00
 Coeff-Com: -0.403D-04-0.811D-03-0.155D-02 0.486D-01-0.348D+00 0.130D+01
 Coeff:     -0.403D-04-0.811D-03-0.155D-02 0.486D-01-0.348D+00 0.130D+01
 Gap=     0.513 Goal=   None    Shift=    0.000
 Gap=     0.502 Goal=   None    Shift=    0.000
 RMSDP=3.36D-06 MaxDP=1.31D-04 DE=-2.50D-07 OVMax= 9.18D-05

 Cycle   7  Pass 1  IDiag  1:
 RMSU=  4.71D-07    CP:  8.06D-01  2.19D+00  1.33D+00  1.22D+00  1.51D+00
                    CP:  1.47D+00
 FoFJK:  IHMeth= 1 ICntrl=     0 DoSepK=T KAlg= 1 I1Cent= 0 FoldK=F
 E= -40.8836097465781     Delta-E=       -0.000000012643 Rises=F Damp=F
 DIIS: error= 4.15D-06 at cycle   7 NSaved=   7.
 NSaved= 7 IEnMin= 7 EnMin= -40.8836097465781     IErMin= 7 ErrMin= 4.15D-06
 ErrMax= 4.15D-06 EMaxC= 1.00D-01 BMatC= 1.09D-09 BMatP= 1.28D-08
 IDIUse=1 WtCom= 1.00D+00 WtEn= 0.00D+00
 Coeff-Com: -0.428D-04-0.886D-04-0.612D-03 0.962D-02-0.344D-01-0.144D+00
 Coeff-Com:  0.117D+01
 Coeff:     -0.428D-04-0.886D-04-0.612D-03 0.962D-02-0.344D-01-0.144D+00
 Coeff:      0.117D+01
 Gap=     0.513 Goal=   None    Shift=    0.000
 Gap=     0.502 Goal=   None    Shift=    0.000
 RMSDP=4.59D-07 MaxDP=1.18D-05 DE=-1.26D-08 OVMax= 2.28D-05

 Cycle   8  Pass 1  IDiag  1:
 RMSU=  1.10D-07    CP:  8.06D-01  2.19D+00  1.33D+00  1.22D+00  1.52D+00
                    CP:  1.58D+00  1.38D+00
 FoFJK:  IHMeth= 1 ICntrl=     0 DoSepK=T KAlg= 1 I1Cent= 0 FoldK=F
 E= -40.8836097475046     Delta-E=       -0.000000000927 Rises=F Damp=F
 DIIS: error= 1.62D-06 at cycle   8 NSaved=   8.
 NSaved= 8 IEnMin= 8 EnMin= -40.8836097475046     IErMin= 8 ErrMin= 1.62D-06
 ErrMax= 1.62D-06 EMaxC= 1.00D-01 BMatC= 1.52D-10 BMatP= 1.09D-09
 IDIUse=1 WtCom= 1.00D+00 WtEn= 0.00D+00
 Coeff-Com:  0.185D-04 0.130D-03 0.461D-03-0.974D-02 0.552D-01-0.990D-01
 Coeff-Com: -0.402D+00 0.146D+01
 Coeff:      0.185D-04 0.130D-03 0.461D-03-0.974D-02 0.552D-01-0.990D-01
 Coeff:     -0.402D+00 0.146D+01
 Gap=     0.513 Goal=   None    Shift=    0.000
 Gap=     0.502 Goal=   None    Shift=    0.000
 RMSDP=1.69D-07 MaxDP=3.30D-06 DE=-9.27D-10 OVMax= 1.02D-05

 Cycle   9  Pass 1  IDiag  1:
 RMSU=  2.92D-08    CP:  8.06D-01  2.19D+00  1.33D+00  1.22D+00  1.52D+00
                    CP:  1.61D+00  1.54D+00  1.79D+00
 FoFJK:  IHMeth= 1 ICntrl=     0 DoSepK=T KAlg= 1 I1Cent= 0 FoldK=F
 E= -40.8836097476396     Delta-E=       -0.000000000135 Rises=F Damp=F
 DIIS: error= 3.59D-07 at cycle   9 NSaved=   9.
 NSaved= 9 IEnMin= 9 EnMin= -40.8836097476396     IErMin= 9 ErrMin= 3.59D-07
 ErrMax= 3.59D-07 EMaxC= 1.00D-01 BMatC= 7.41D-12 BMatP= 1.52D-10
 IDIUse=1 WtCom= 1.00D+00 WtEn= 0.00D+00
 Coeff-Com: -0.433D-08-0.271D-04-0.772D-04 0.183D-02-0.116D-01 0.378D-01
 Coeff-Com:  0.109D-01-0.362D+00 0.132D+01
 Coeff:     -0.433D-08-0.271D-04-0.772D-04 0.183D-02-0.116D-01 0.378D-01
 Coeff:      0.109D-01-0.362D+00 0.132D+01
 Gap=     0.513 Goal=   None    Shift=    0.000
 Gap=     0.502 Goal=   None    Shift=    0.000
 RMSDP=4.23D-08 MaxDP=1.06D-06 DE=-1.35D-10 OVMax= 2.05D-06

 Cycle  10  Pass 1  IDiag  1:
 RMSU=  1.04D-08    CP:  8.06D-01  2.19D+00  1.33D+00  1.22D+00  1.51D+00
                    CP:  1.61D+00  1.55D+00  2.00D+00  1.43D+00
 FoFJK:  IHMeth= 1 ICntrl=     0 DoSepK=T KAlg= 1 I1Cent= 0 FoldK=F
 E= -40.8836097476471     Delta-E=       -0.000000000007 Rises=F Damp=F
 DIIS: error= 6.76D-08 at cycle  10 NSaved=  10.
 NSaved=10 IEnMin=10 EnMin= -40.8836097476471     IErMin=10 ErrMin= 6.76D-08
 ErrMax= 6.76D-08 EMaxC= 1.00D-01 BMatC= 3.58D-13 BMatP= 7.41D-12
 IDIUse=1 WtCom= 1.00D+00 WtEn= 0.00D+00
 Coeff-Com: -0.780D-06 0.102D-04 0.202D-04-0.609D-03 0.406D-02-0.165D-01
 Coeff-Com:  0.109D-01 0.132D+00-0.679D+00 0.155D+01
 Coeff:     -0.780D-06 0.102D-04 0.202D-04-0.609D-03 0.406D-02-0.165D-01
 Coeff:      0.109D-01 0.132D+00-0.679D+00 0.155D+01
 Gap=     0.513 Goal=   None    Shift=    0.000
 Gap=     0.502 Goal=   None    Shift=    0.000
 RMSDP=7.96D-09 MaxDP=1.45D-07 DE=-7.48D-12 OVMax= 4.02D-07

 SCF Done:  E(ULC-B+HF-LYP) =  -40.8836097476     A.U. after   10 cycles
             Convg  =    0.7962D-08             -V/T =  2.0051
 <Sx>= 0.0000 <Sy>= 0.0000 <Sz>= 0.5000 <S**2>= 0.7500 S= 0.5000
 <L.S>= 0.000000000000E+00
 KE= 4.067622824057D+01 PE=-1.238659940538D+02 EE= 2.744944797022D+01
 Annihilation of the first spin contaminant:
 S**2 before annihilation     0.7500,   after     0.7500
 Leave Link  502 at Wed Nov  3 01:27:31 2010, MaxMem=  786432000 cpu:     232.6
 (Enter /share/apps/G09A02/g09/l601.exe)
 Copying SCF densities to generalized density rwf, IOpCl= 1 IROHF=0.

 **********************************************************************

            Population analysis using the SCF density.

 **********************************************************************

 Alpha  occ. eigenvalues --  -10.11333  -0.85956  -0.52735  -0.52527  -0.52527
 Alpha  occ. eigenvalues --   -0.44956
 Alpha virt. eigenvalues --    0.06346   0.09635   0.09635   0.10819   0.22666
 Alpha virt. eigenvalues --    0.22666   0.23366   0.27193   0.36093   0.36811
 Alpha virt. eigenvalues --    0.36811   0.41858   0.41858   0.43459   0.64103
 Alpha virt. eigenvalues --    0.64683   0.64683   0.69081   0.69081   0.71985
 Alpha virt. eigenvalues --    0.74190   0.80095   0.80277   0.80277   0.96520
 Alpha virt. eigenvalues --    0.99180   0.99216   0.99216   1.10255   1.10255
 Alpha virt. eigenvalues --    1.25224   1.25225   1.27459   1.40973   1.40973
 Alpha virt. eigenvalues --    1.43223   1.69009   2.06614   2.06614   2.07834
 Alpha virt. eigenvalues --    2.07834   2.08177   2.34492   2.51926   2.78771
 Alpha virt. eigenvalues --    2.78771   2.80526   3.08993   3.08993   3.09012
 Alpha virt. eigenvalues --    3.43920   3.43920   3.45027   3.64874   3.65180
 Alpha virt. eigenvalues --    3.65180   3.80332   3.80332   3.91057   4.07908
 Alpha virt. eigenvalues --    4.31081   4.31081   4.32641   4.35656   4.35656
 Alpha virt. eigenvalues --    4.58743   4.58743   4.58743   5.01253   5.89374
 Alpha virt. eigenvalues --    5.89374   5.89377   7.30302   7.30302   7.91475
 Alpha virt. eigenvalues --    7.91475   7.92222  24.29286
  Beta  occ. eigenvalues --  -10.11321  -0.85921  -0.52520  -0.52519  -0.52519
  Beta virt. eigenvalues --   -0.02340   0.06646   0.09537   0.09537   0.11253
  Beta virt. eigenvalues --    0.22654   0.22654   0.23719   0.27203   0.36798
  Beta virt. eigenvalues --    0.36798   0.39397   0.41839   0.41839   0.46673
  Beta virt. eigenvalues --    0.64725   0.64725   0.65081   0.72023   0.73249
  Beta virt. eigenvalues --    0.73249   0.74981   0.80140   0.80277   0.80277
  Beta virt. eigenvalues --    0.98203   0.99180   0.99210   0.99210   1.10251
  Beta virt. eigenvalues --    1.10252   1.25220   1.25220   1.27565   1.40977
  Beta virt. eigenvalues --    1.40977   1.43104   1.68989   2.06627   2.06627
  Beta virt. eigenvalues --    2.07852   2.07852   2.08211   2.51932   2.55439
  Beta virt. eigenvalues --    2.78783   2.78783   2.80561   3.09017   3.09019
  Beta virt. eigenvalues --    3.09019   3.43932   3.43932   3.45017   3.65076
  Beta virt. eigenvalues --    3.65230   3.65230   3.95855   3.95855   4.05893
  Beta virt. eigenvalues --    4.07920   4.31083   4.31083   4.32934   4.35656
  Beta virt. eigenvalues --    4.35656   4.58747   4.58750   4.58750   5.01270
  Beta virt. eigenvalues --    5.89381   5.89381   5.89396   7.30336   7.30336
  Beta virt. eigenvalues --    7.91496   7.91496   7.92268  24.29302
          Condensed to atoms (all electrons):
              1          2          3          4          5          6
     1  C    5.065983   0.395964   0.401631   0.401631   0.401631   0.002748
     2  H    0.395964   0.489654  -0.017403  -0.017403  -0.017403  -0.001355
     3  H    0.401631  -0.017403   0.483808  -0.017161  -0.017161  -0.000064
     4  H    0.401631  -0.017403  -0.017161   0.483807  -0.017161  -0.000064
     5  H    0.401631  -0.017403  -0.017161  -0.017161   0.483807  -0.000064
     6  H    0.002748  -0.001355  -0.000064  -0.000064  -0.000064   0.996206
 Mulliken atomic charges:
              1
     1  C   -0.669588
     2  H    0.167946
     3  H    0.166349
     4  H    0.166350
     5  H    0.166350
     6  H    0.002593
 Sum of Mulliken atomic charges =   0.00000
 Mulliken charges with hydrogens summed into heavy atoms:
              1
     1  C    0.000000
 Sum of Mulliken charges with hydrogens summed into heavy atoms =   0.00000
          Atomic-Atomic Spin Densities.
              1          2          3          4          5          6
     1  C    0.014650   0.000727  -0.000330  -0.000330  -0.000330   0.002119
     2  H    0.000727  -0.012416   0.000805   0.000805   0.000805  -0.002451
     3  H   -0.000330   0.000805  -0.000170  -0.000175  -0.000175  -0.000044
     4  H   -0.000330   0.000805  -0.000175  -0.000170  -0.000174  -0.000044
     5  H   -0.000330   0.000805  -0.000175  -0.000174  -0.000170  -0.000044
     6  H    0.002119  -0.002451  -0.000044  -0.000044  -0.000044   0.995943
 Mulliken atomic spin densities:
              1
     1  C    0.016506
     2  H   -0.011724
     3  H   -0.000087
     4  H   -0.000088
     5  H   -0.000088
     6  H    0.995481
 Sum of Mulliken atomic spin densities =   1.00000
 Electronic spatial extent (au):  <R**2>=             89.8051
 Charge=              0.0000 electrons
 Dipole moment (field-independent basis, Debye):
    X=              0.0000    Y=              0.0000    Z=              0.0085  Tot=              0.0085
 Quadrupole moment (field-independent basis, Debye-Ang):
   XX=             -9.9501   YY=             -9.9501   ZZ=             -9.8638
   XY=              0.0000   XZ=              0.0000   YZ=              0.0000
 Traceless Quadrupole moment (field-independent basis, Debye-Ang):
   XX=             -0.0287   YY=             -0.0287   ZZ=              0.0575
   XY=              0.0000   XZ=              0.0000   YZ=              0.0000
 Octapole moment (field-independent basis, Debye-Ang**2):
  XXX=              0.6628  YYY=              0.0000  ZZZ=            -14.7273  XYY=             -0.6628
  XXY=              0.0000  XXZ=             -5.8607  XZZ=              0.0000  YZZ=              0.0000
  YYZ=             -5.8607  XYZ=              0.0000
 Hexadecapole moment (field-independent basis, Debye-Ang**3):
 XXXX=            -18.4947 YYYY=            -18.4947 ZZZZ=           -137.2974 XXXY=              0.0000
 XXXZ=             -0.4218 YYYX=              0.0000 YYYZ=              0.0000 ZZZX=              0.0000
 ZZZY=              0.0000 XXYY=             -6.1649 XXZZ=            -26.7480 YYZZ=            -26.7480
 XXYZ=              0.0000 YYXZ=              0.4217 ZZXY=              0.0000
 N-N= 1.485670809538D+01 E-N=-1.845858703001D+02  KE= 6.076663301161D+01
                          Isotropic Fermi Contact Couplings
        Atom                 a.u.       MegaHertz       Gauss      10(-4) cm-1
     1  C(13)              0.00247       2.78043       0.99213       0.92745
     2  H(1)               0.00029       1.29232       0.46113       0.43107
     3  H(1)              -0.00002      -0.11039      -0.03939      -0.03682
     4  H(1)              -0.00002      -0.11038      -0.03939      -0.03682
     5  H(1)              -0.00002      -0.11038      -0.03939      -0.03682
     6  H(1)               0.28621    1279.34519     456.50216     426.74362
 --------------------------------------------------------
       Center         ----  Spin Dipole Couplings  ----
                      3XX-RR        3YY-RR        3ZZ-RR
 --------------------------------------------------------
     1   Atom       -0.007025     -0.007025      0.014050
     2   Atom       -0.008747     -0.008747      0.017493
     3   Atom       -0.001126     -0.002316      0.003441
     4   Atom       -0.002018     -0.001423      0.003441
     5   Atom       -0.002018     -0.001423      0.003441
     6   Atom        0.000088      0.000088     -0.000177
 --------------------------------------------------------
                        XY            XZ            YZ
 --------------------------------------------------------
     1   Atom        0.000000      0.000000      0.000000
     2   Atom        0.000000      0.000000      0.000000
     3   Atom        0.000000     -0.001556      0.000000
     4   Atom        0.000515      0.000778      0.001347
     5   Atom       -0.000515      0.000778     -0.001347
     6   Atom        0.000000      0.000000      0.000000
 --------------------------------------------------------


 ---------------------------------------------------------------------------------
              Anisotropic Spin Dipole Couplings in Principal Axis System
 ---------------------------------------------------------------------------------

       Atom             a.u.   MegaHertz   Gauss  10(-4) cm-1        Axes

              Baa    -0.0070    -0.943    -0.336    -0.314  0.0000  1.0000  0.0000
     1 C(13)  Bbb    -0.0070    -0.943    -0.336    -0.314  1.0000  0.0000  0.0000
              Bcc     0.0141     1.885     0.673     0.629  0.0000  0.0000  1.0000
 
              Baa    -0.0087    -4.667    -1.665    -1.557  1.0000  0.0000  0.0000
     2 H(1)   Bbb    -0.0087    -4.667    -1.665    -1.557  0.0000  1.0000  0.0000
              Bcc     0.0175     9.334     3.330     3.113  0.0000  0.0000  1.0000
 
              Baa    -0.0023    -1.236    -0.441    -0.412  0.0000  1.0000  0.0000
     3 H(1)   Bbb    -0.0016    -0.857    -0.306    -0.286  0.9556  0.0000  0.2946
              Bcc     0.0039     2.092     0.747     0.698 -0.2946  0.0000  0.9556
 
              Baa    -0.0023    -1.236    -0.441    -0.412  0.8660 -0.5000  0.0000
     4 H(1)   Bbb    -0.0016    -0.857    -0.306    -0.286  0.4778  0.8276 -0.2946
              Bcc     0.0039     2.092     0.747     0.698  0.1473  0.2551  0.9556
 
              Baa    -0.0023    -1.236    -0.441    -0.412  0.8660  0.5000  0.0000
     5 H(1)   Bbb    -0.0016    -0.857    -0.306    -0.286 -0.4778  0.8276  0.2946
              Bcc     0.0039     2.092     0.747     0.698  0.1473 -0.2551  0.9556
 
              Baa    -0.0002    -0.094    -0.034    -0.031  0.0000  0.0000  1.0000
     6 H(1)   Bbb     0.0001     0.047     0.017     0.016  1.0000  0.0000  0.0000
              Bcc     0.0001     0.047     0.017     0.016  0.0000  1.0000  0.0000
 

 ---------------------------------------------------------------------------------

 No NMR shielding tensors so no spin-rotation constants.
 Leave Link  601 at Wed Nov  3 01:27:32 2010, MaxMem=  786432000 cpu:       3.8
 (Enter /share/apps/G09A02/g09/l9999.exe)
 1\1\GINC-COMPUTE-0-7\SP\ULC-BLYP\6-311+G(3df,2p)\C1H5(2)\WENXINZY\03-N
 ov-2010\0\\#p lc-blyp/6-311+g(3df,2p) nosymm scf=tight\\35 H_CH4\\0,2\
 C\H,1,1.0892892\H,1,1.0893123,2,109.4694856\H,1,1.0893123,2,109.469485
 6,3,120.,0\H,1,1.0893123,2,109.4694856,3,-120.,0\H,2,2.6796539,1,180.,
 3,0.,0\\Version=EM64L-G09RevA.02\HF=-40.8836097\S2=0.75005\S2-1=0.\S2A
 =0.75\RMSD=7.962e-09\Dipole=0.0000003,0.,0.0033592\Quadrupole=-0.02137
 38,-0.0213713,0.0427451,0.,-0.0000006,0.\PG=C03V [C3(H1H1C1),3SGV(H1)]
 \\@


 GARLIC THEN HAVE POWER TO SAVE FROM DEATH
 BEAR WITH IT THOUGH IT MAKETH UNSAVORY BREATH,
 AND SCORN NOT GARLIC LIKE SOME THAT THINK
 IT ONLY MAKETH MEN WINK AND DRINK AND STINK.
   --  SIR JOHN HARRINGTON,
       "THE ENGLISHMAN'S DOCTOR", 1609
 Job cpu time:  0 days  0 hours  4 minutes  8.2 seconds.
 File lengths (MBytes):  RWF=      9 Int=      0 D2E=      0 Chk=      1 Scr=      1
 Normal termination of Gaussian 09 at Wed Nov  3 01:27:32 2010.
