 Entering Gaussian System, Link 0=/share/apps/G09A02/g09/g09
 Input=./.script12553/Job_H_CH4_6.com
 Output=./.script12553/Job_H_CH4_6.log
 Initial command:
 /share/apps/G09A02/g09/l1.exe /state/partition1/wenxinzy/scratch/Gau-13189.inp -scrdir=/state/partition1/wenxinzy/scratch/
 Default is to use a total of   8 processors:
                                8 via shared-memory
                                1 via Linda
 Entering Link 1 = /share/apps/G09A02/g09/l1.exe PID=     13190.
  
 Copyright (c) 1988,1990,1992,1993,1995,1998,2003,2009, Gaussian, Inc.
                  All Rights Reserved.
  
 This is part of the Gaussian(R) 09 program.  It is based on
 the Gaussian(R) 03 system (copyright 2003, Gaussian, Inc.),
 the Gaussian(R) 98 system (copyright 1998, Gaussian, Inc.),
 the Gaussian(R) 94 system (copyright 1995, Gaussian, Inc.),
 the Gaussian 92(TM) system (copyright 1992, Gaussian, Inc.),
 the Gaussian 90(TM) system (copyright 1990, Gaussian, Inc.),
 the Gaussian 88(TM) system (copyright 1988, Gaussian, Inc.),
 the Gaussian 86(TM) system (copyright 1986, Carnegie Mellon
 University), and the Gaussian 82(TM) system (copyright 1983,
 Carnegie Mellon University). Gaussian is a federally registered
 trademark of Gaussian, Inc.
  
 This software contains proprietary and confidential information,
 including trade secrets, belonging to Gaussian, Inc.
  
 This software is provided under written license and may be
 used, copied, transmitted, or stored only in accord with that
 written license.
  
 The following legend is applicable only to US Government
 contracts under FAR:
  
                    RESTRICTED RIGHTS LEGEND
  
 Use, reproduction and disclosure by the US Government is
 subject to restrictions as set forth in subparagraphs (a)
 and (c) of the Commercial Computer Software - Restricted
 Rights clause in FAR 52.227-19.
  
 Gaussian, Inc.
 340 Quinnipiac St., Bldg. 40, Wallingford CT 06492
  
  
 ---------------------------------------------------------------
 Warning -- This program may not be used in any manner that
 competes with the business of Gaussian, Inc. or will provide
 assistance to any competitor of Gaussian, Inc.  The licensee
 of this program is prohibited from giving any competitor of
 Gaussian, Inc. access to this program.  By using this program,
 the user acknowledges that Gaussian, Inc. is engaged in the
 business of creating and licensing software in the field of
 computational chemistry and represents and warrants to the
 licensee that it is not a competitor of Gaussian, Inc. and that
 it will not use this program in any manner prohibited above.
 ---------------------------------------------------------------
  

 Cite this work as:
 Gaussian 09, Revision A.02,
 M. J. Frisch, G. W. Trucks, H. B. Schlegel, G. E. Scuseria, 
 M. A. Robb, J. R. Cheeseman, G. Scalmani, V. Barone, B. Mennucci, 
 G. A. Petersson, H. Nakatsuji, M. Caricato, X. Li, H. P. Hratchian, 
 A. F. Izmaylov, J. Bloino, G. Zheng, J. L. Sonnenberg, M. Hada, 
 M. Ehara, K. Toyota, R. Fukuda, J. Hasegawa, M. Ishida, T. Nakajima, 
 Y. Honda, O. Kitao, H. Nakai, T. Vreven, J. A. Montgomery, Jr., 
 J. E. Peralta, F. Ogliaro, M. Bearpark, J. J. Heyd, E. Brothers, 
 K. N. Kudin, V. N. Staroverov, R. Kobayashi, J. Normand, 
 K. Raghavachari, A. Rendell, J. C. Burant, S. S. Iyengar, J. Tomasi, 
 M. Cossi, N. Rega, J. M. Millam, M. Klene, J. E. Knox, J. B. Cross, 
 V. Bakken, C. Adamo, J. Jaramillo, R. Gomperts, R. E. Stratmann, 
 O. Yazyev, A. J. Austin, R. Cammi, C. Pomelli, J. W. Ochterski, 
 R. L. Martin, K. Morokuma, V. G. Zakrzewski, G. A. Voth, 
 P. Salvador, J. J. Dannenberg, S. Dapprich, A. D. Daniels, 
 O. Farkas, J. B. Foresman, J. V. Ortiz, J. Cioslowski, 
 and D. J. Fox, Gaussian, Inc., Wallingford CT, 2009.
 
 ******************************************
 Gaussian 09:  EM64L-G09RevA.02 11-Jun-2009
                 3-Nov-2010 
 ******************************************
 %chk=/state/partition1/wenxinzy/scratch/H_CH4_6.chk
 %nproc=8
 Will use up to    8 processors via shared memory.
 %mem=6000mb
 -------------------------------------------
 #p lc-blyp/6-311+g(3df,2p) nosymm scf=tight
 -------------------------------------------
 1/38=1/1;
 2/12=2,15=1,17=6,18=5,40=1/2;
 3/5=4,6=6,7=216,11=2,16=1,25=1,30=1,74=1000402/1,2,3;
 4//1;
 5/5=2,32=2,38=5/2;
 6/7=2,8=2,9=2,10=2,28=1/1;
 99/5=1,9=1/99;
 Leave Link    1 at Wed Nov  3 01:10:56 2010, MaxMem=  786432000 cpu:       0.4
 (Enter /share/apps/G09A02/g09/l101.exe)
 -------
 7 H_CH4
 -------
 Symbolic Z-matrix:
 Charge =  0 Multiplicity = 2
 C
 H1                   C    R1
 H2                   C    R2       H1   A1
 H3                   C    R2       H1   A1       H2    120.     0
 H4                   C    R2       H1   A1       H2   -120.     0
 H5                   H1   R3       C     180.     H2    0.       0
       Variables:
  R1                    1.15083                  
  R2                    1.08876                  
  A1                  107.9046                   
  R3                    1.16457                  
 
 NAtoms=      6 NQM=      6 NQMF=      0 NMic=      0 NMicF=      0 NTot=      6.
                    Isotopes and Nuclear Properties:
 (Nuclear quadrupole moments (NQMom) in fm**2, nuclear magnetic moments (NMagM)
  in nuclear magnetons)

  Atom         1           2           3           4           5           6
 IAtWgt=          12           1           1           1           1           1
 AtmWgt=  12.0000000   1.0078250   1.0078250   1.0078250   1.0078250   1.0078250
 NucSpn=           0           1           1           1           1           1
 AtZEff=   0.0000000   0.0000000   0.0000000   0.0000000   0.0000000   0.0000000
 NQMom=    0.0000000   0.0000000   0.0000000   0.0000000   0.0000000   0.0000000
 NMagM=    0.0000000   2.7928460   2.7928460   2.7928460   2.7928460   2.7928460
 Leave Link  101 at Wed Nov  3 01:10:56 2010, MaxMem=  786432000 cpu:       1.2
 (Enter /share/apps/G09A02/g09/l202.exe)
                          Input orientation:                          
 ---------------------------------------------------------------------
 Center     Atomic      Atomic             Coordinates (Angstroms)
 Number     Number       Type             X           Y           Z
 ---------------------------------------------------------------------
      1          6           0        0.000000    0.000000    0.000000
      2          1           0        0.000000    0.000000    1.150832
      3          1           0        1.036034    0.000000   -0.334722
      4          1           0       -0.518017   -0.897232   -0.334722
      5          1           0       -0.518017    0.897232   -0.334722
      6          1           0        0.000000    0.000000    2.315405
 ---------------------------------------------------------------------
                    Distance matrix (angstroms):
                    1          2          3          4          5
     1  C    0.000000
     2  H    1.150832   0.000000
     3  H    1.088763   1.811142   0.000000
     4  H    1.088763   1.811142   1.794464   0.000000
     5  H    1.088763   1.811142   1.794464   1.794464   0.000000
     6  H    2.315405   1.164573   2.845442   2.845442   2.845442
                    6
     6  H    0.000000
 Symmetry turned off by external request.
 Stoichiometry    CH5(2)
 Framework group  C3V[C3(HHC),3SGV(H)]
 Deg. of freedom     4
 Full point group                 C3V     NOp   6
 Rotational constants (GHZ):    155.7265653     60.6124380     60.6124380
 Leave Link  202 at Wed Nov  3 01:10:56 2010, MaxMem=  786432000 cpu:       0.0
 (Enter /share/apps/G09A02/g09/l301.exe)
 Standard basis: 6-311+G(3df,2p) (5D, 7F)
 Ernie: Thresh=  0.10000D-02 Tol=  0.10000D-05 Strict=F.
 Integral buffers will be    131072 words long.
 Raffenetti 2 integral format.
 Two-electron integral symmetry is turned off.
    84 basis functions,   113 primitive gaussians,    90 cartesian basis functions
     6 alpha electrons        5 beta electrons
       nuclear repulsion energy        15.6523757178 Hartrees.
 IExCor=10402 DFT=T Ex=LC-B+HF Corr=LYP ExCW=0 ScaHFX=  1.000000
 ScaDFX=  1.000000  1.000000  1.000000  1.000000 ScalE2=  1.000000  1.000000
 IRadAn=      0 IRanWt=     -1 IRanGd=            0 ICorTp=0
  HFx wShort=  0.000000 wLong=  0.470000 cFull=  0.000000 cShort=  0.000000 cLong=  1.000000
  DFx wShort=  0.000000 wLong=  0.470000 cFull=  0.000000 cShort=  0.000000 cLong=  1.000000
 NAtoms=    6 NActive=    6 NUniq=    6 SFac= 7.50D-01 NAtFMM=   80 NAOKFM=F Big=F
 Leave Link  301 at Wed Nov  3 01:10:56 2010, MaxMem=  786432000 cpu:       0.6
 (Enter /share/apps/G09A02/g09/l302.exe)
 NPDir=0 NMtPBC=     1 NCelOv=     1 NCel=       1 NClECP=     1 NCelD=      1
         NCelK=      1 NCelE2=     1 NClLst=     1 CellRange=     0.0.
 One-electron integrals computed using PRISM.
 NBasis=    84 RedAO= T  NBF=    84
 NBsUse=    84 1.00D-06 NBFU=    84
 Precomputing XC quadrature grid using
 IXCGrd= 2 IRadAn=           0 IRanWt=          -1 IRanGd=           0 AccXCQ= 1.00D-10.
 NRdTot=     383 NPtTot=       48740 NUsed=       51512 NTot=       51544
 NSgBfM=    90    90    90    90    90 NAtAll=     6     6.
 Leave Link  302 at Wed Nov  3 01:10:57 2010, MaxMem=  786432000 cpu:       2.5
 (Enter /share/apps/G09A02/g09/l303.exe)
 DipDrv:  MaxL=1.
 Leave Link  303 at Wed Nov  3 01:10:57 2010, MaxMem=  786432000 cpu:       0.4
 (Enter /share/apps/G09A02/g09/l401.exe)
 Harris functional with IExCor=10402 diagonalized for initial guess.
 ExpMin= 4.38D-02 ExpMax= 4.56D+03 ExpMxC= 6.82D+02 IAcc=2 IRadAn=         0 AccDes= 0.00D+00
 HarFok:  IExCor=10402 AccDes= 0.00D+00 IRadAn=         0 IDoV= 1
 ScaDFX=  1.000000  1.000000  1.000000  1.000000
 FoFCou: FMM=F IPFlag=           0 FMFlag=      100000 FMFlg1=           0
         NFxFlg=           0 DoJE=T BraDBF=F KetDBF=T FulRan=T
         Omega=  0.000000  0.000000  1.000000  0.000000  0.000000 ICntrl=     500 IOpCl=  0
         NMat0=    1 NMatS0=    1 NMatT0=    0 NMatD0=    1 NMtDS0=    0 NMtDT0=    0
         I1Cent=           4 NGrid=           0.
 Symmetry not used in FoFCou.
 Harris En= -38.5477302299129    
 Initial guess <Sx>= 0.0000 <Sy>= 0.0000 <Sz>= 0.5000 <S**2>= 0.7500 S= 0.5000
 Leave Link  401 at Wed Nov  3 01:10:57 2010, MaxMem=  786432000 cpu:       3.7
 (Enter /share/apps/G09A02/g09/l502.exe)
 UHF open shell SCF:
 Requested convergence on RMS density matrix=1.00D-08 within 128 cycles.
 Requested convergence on MAX density matrix=1.00D-06.
 Requested convergence on             energy=1.00D-06.
 No special actions if energy rises.
 Using DIIS extrapolation, IDIIS=  1040.
 Two-electron integral symmetry not used.
        51445 words used for storage of precomputed grid.
 IEnd=       95163 IEndB=       95163 NGot=   786432000 MDV=   786361668
 LenX=   786361668 LenY=   786353127
 Fock matrices will be formed incrementally for  20 cycles.

 Cycle   1  Pass 1  IDiag  1:
 FoFJK:  IHMeth= 1 ICntrl=     0 DoSepK=T KAlg= 1 I1Cent= 0 FoldK=F
 FoFCou: FMM=F IPFlag=           0 FMFlag=      100000 FMFlg1=           0
         NFxFlg=           0 DoJE=T BraDBF=F KetDBF=F FulRan=T
         Omega=  0.000000  0.000000  1.000000  0.000000  0.000000 ICntrl=     500 IOpCl=  0
         NMat0=    1 NMatS0=    1 NMatT0=    0 NMatD0=    1 NMtDS0=    0 NMtDT0=    0
         I1Cent=           0 NGrid=           0.
 Symmetry not used in FoFCou.
 E= -40.8028661234541    
 DIIS: error= 2.84D-02 at cycle   1 NSaved=   1.
 NSaved= 1 IEnMin= 1 EnMin= -40.8028661234541     IErMin= 1 ErrMin= 2.84D-02
 ErrMax= 2.84D-02 EMaxC= 1.00D-01 BMatC= 2.15D-01 BMatP= 2.15D-01
 IDIUse=3 WtCom= 7.16D-01 WtEn= 2.84D-01
 Coeff-Com:  0.100D+01
 Coeff-En:   0.100D+01
 Coeff:      0.100D+01
 Gap=     0.430 Goal=   None    Shift=    0.000
 Gap=     0.432 Goal=   None    Shift=    0.000
 GapD=    0.430 DampG=2.000 DampE=0.500 DampFc=1.0000 IDamp=-1.
 RMSDP=6.41D-03 MaxDP=2.24D-01              OVMax= 1.55D-01

 Cycle   2  Pass 1  IDiag  1:
 RMSU=  4.49D-03    CP:  7.26D-01
 FoFJK:  IHMeth= 1 ICntrl=     0 DoSepK=T KAlg= 1 I1Cent= 0 FoldK=F
 E= -40.8458755746183     Delta-E=       -0.043009451164 Rises=F Damp=F
 DIIS: error= 2.24D-02 at cycle   2 NSaved=   2.
 NSaved= 2 IEnMin= 2 EnMin= -40.8458755746183     IErMin= 2 ErrMin= 2.24D-02
 ErrMax= 2.24D-02 EMaxC= 1.00D-01 BMatC= 9.57D-02 BMatP= 2.15D-01
 IDIUse=3 WtCom= 7.76D-01 WtEn= 2.24D-01
 Coeff-Com:  0.392D+00 0.608D+00
 Coeff-En:   0.682D-01 0.932D+00
 Coeff:      0.319D+00 0.681D+00
 Gap=     0.449 Goal=   None    Shift=    0.000
 Gap=     0.534 Goal=   None    Shift=    0.000
 RMSDP=2.17D-03 MaxDP=7.52D-02 DE=-4.30D-02 OVMax= 6.63D-02

 Cycle   3  Pass 1  IDiag  1:
 RMSU=  1.66D-03    CP:  6.73D-01  1.13D+00
 FoFJK:  IHMeth= 1 ICntrl=     0 DoSepK=T KAlg= 1 I1Cent= 0 FoldK=F
 E= -40.8697859229590     Delta-E=       -0.023910348341 Rises=F Damp=F
 DIIS: error= 3.97D-03 at cycle   3 NSaved=   3.
 NSaved= 3 IEnMin= 3 EnMin= -40.8697859229590     IErMin= 3 ErrMin= 3.97D-03
 ErrMax= 3.97D-03 EMaxC= 1.00D-01 BMatC= 3.79D-03 BMatP= 9.57D-02
 IDIUse=3 WtCom= 9.60D-01 WtEn= 3.97D-02
 Coeff-Com: -0.991D-01 0.422D-01 0.106D+01
 Coeff-En:   0.000D+00 0.000D+00 0.100D+01
 Coeff:     -0.952D-01 0.405D-01 0.105D+01
 Gap=     0.436 Goal=   None    Shift=    0.000
 Gap=     0.534 Goal=   None    Shift=    0.000
 RMSDP=1.04D-03 MaxDP=3.75D-02 DE=-2.39D-02 OVMax= 3.12D-02

 Cycle   4  Pass 1  IDiag  1:
 RMSU=  4.38D-04    CP:  6.31D-01  1.24D+00  1.19D+00
 FoFJK:  IHMeth= 1 ICntrl=     0 DoSepK=T KAlg= 1 I1Cent= 0 FoldK=F
 E= -40.8713699513306     Delta-E=       -0.001584028372 Rises=F Damp=F
 DIIS: error= 9.66D-04 at cycle   4 NSaved=   4.
 NSaved= 4 IEnMin= 4 EnMin= -40.8713699513306     IErMin= 4 ErrMin= 9.66D-04
 ErrMax= 9.66D-04 EMaxC= 1.00D-01 BMatC= 1.20D-04 BMatP= 3.79D-03
 IDIUse=3 WtCom= 9.90D-01 WtEn= 9.66D-03
 Coeff-Com: -0.961D-02-0.434D-01-0.204D+00 0.126D+01
 Coeff-En:   0.000D+00 0.000D+00 0.000D+00 0.100D+01
 Coeff:     -0.952D-02-0.430D-01-0.202D+00 0.125D+01
 Gap=     0.440 Goal=   None    Shift=    0.000
 Gap=     0.534 Goal=   None    Shift=    0.000
 RMSDP=3.45D-04 MaxDP=1.22D-02 DE=-1.58D-03 OVMax= 1.27D-02

 Cycle   5  Pass 1  IDiag  1:
 RMSU=  4.51D-05    CP:  6.18D-01  1.27D+00  1.28D+00  1.38D+00
 FoFJK:  IHMeth= 1 ICntrl=     0 DoSepK=T KAlg= 1 I1Cent= 0 FoldK=F
 E= -40.8715070750063     Delta-E=       -0.000137123676 Rises=F Damp=F
 DIIS: error= 4.62D-04 at cycle   5 NSaved=   5.
 NSaved= 5 IEnMin= 5 EnMin= -40.8715070750063     IErMin= 5 ErrMin= 4.62D-04
 ErrMax= 4.62D-04 EMaxC= 1.00D-01 BMatC= 9.62D-06 BMatP= 1.20D-04
 IDIUse=3 WtCom= 9.95D-01 WtEn= 4.62D-03
 Coeff-Com:  0.692D-02 0.949D-02 0.607D-02-0.334D+00 0.131D+01
 Coeff-En:   0.000D+00 0.000D+00 0.000D+00 0.000D+00 0.100D+01
 Coeff:      0.689D-02 0.945D-02 0.604D-02-0.333D+00 0.131D+01
 Gap=     0.440 Goal=   None    Shift=    0.000
 Gap=     0.533 Goal=   None    Shift=    0.000
 RMSDP=3.85D-05 MaxDP=1.50D-03 DE=-1.37D-04 OVMax= 3.41D-03

 Cycle   6  Pass 1  IDiag  1:
 RMSU=  1.31D-05    CP:  6.18D-01  1.28D+00  1.28D+00  1.41D+00  1.59D+00
 FoFJK:  IHMeth= 1 ICntrl=     0 DoSepK=T KAlg= 1 I1Cent= 0 FoldK=F
 E= -40.8715184309989     Delta-E=       -0.000011355993 Rises=F Damp=F
 DIIS: error= 1.45D-04 at cycle   6 NSaved=   6.
 NSaved= 6 IEnMin= 6 EnMin= -40.8715184309989     IErMin= 6 ErrMin= 1.45D-04
 ErrMax= 1.45D-04 EMaxC= 1.00D-01 BMatC= 1.05D-06 BMatP= 9.62D-06
 IDIUse=3 WtCom= 9.99D-01 WtEn= 1.45D-03
 Coeff-Com:  0.256D-03 0.392D-02 0.184D-01-0.887D-01-0.130D+00 0.120D+01
 Coeff-En:   0.000D+00 0.000D+00 0.000D+00 0.000D+00 0.000D+00 0.100D+01
 Coeff:      0.256D-03 0.392D-02 0.184D-01-0.885D-01-0.130D+00 0.120D+01
 Gap=     0.440 Goal=   None    Shift=    0.000
 Gap=     0.533 Goal=   None    Shift=    0.000
 RMSDP=1.37D-05 MaxDP=4.09D-04 DE=-1.14D-05 OVMax= 1.22D-03

 Cycle   7  Pass 1  IDiag  1:
 RMSU=  3.33D-06    CP:  6.18D-01  1.28D+00  1.27D+00  1.41D+00  1.77D+00
                    CP:  1.37D+00
 FoFJK:  IHMeth= 1 ICntrl=     0 DoSepK=T KAlg= 1 I1Cent= 0 FoldK=F
 E= -40.8715196291243     Delta-E=       -0.000001198125 Rises=F Damp=F
 DIIS: error= 5.32D-05 at cycle   7 NSaved=   7.
 NSaved= 7 IEnMin= 7 EnMin= -40.8715196291243     IErMin= 7 ErrMin= 5.32D-05
 ErrMax= 5.32D-05 EMaxC= 1.00D-01 BMatC= 1.17D-07 BMatP= 1.05D-06
 IDIUse=1 WtCom= 1.00D+00 WtEn= 0.00D+00
 Coeff-Com: -0.746D-03-0.134D-02-0.415D-02 0.467D-01-0.750D-01-0.321D+00
 Coeff-Com:  0.136D+01
 Coeff:     -0.746D-03-0.134D-02-0.415D-02 0.467D-01-0.750D-01-0.321D+00
 Coeff:      0.136D+01
 Gap=     0.440 Goal=   None    Shift=    0.000
 Gap=     0.533 Goal=   None    Shift=    0.000
 RMSDP=5.14D-06 MaxDP=1.36D-04 DE=-1.20D-06 OVMax= 4.12D-04

 Cycle   8  Pass 1  IDiag  1:
 RMSU=  1.14D-06    CP:  6.18D-01  1.28D+00  1.27D+00  1.41D+00  1.81D+00
                    CP:  1.51D+00  1.66D+00
 FoFJK:  IHMeth= 1 ICntrl=     0 DoSepK=T KAlg= 1 I1Cent= 0 FoldK=F
 E= -40.8715197567588     Delta-E=       -0.000000127635 Rises=F Damp=F
 DIIS: error= 1.42D-05 at cycle   8 NSaved=   8.
 NSaved= 8 IEnMin= 8 EnMin= -40.8715197567588     IErMin= 8 ErrMin= 1.42D-05
 ErrMax= 1.42D-05 EMaxC= 1.00D-01 BMatC= 9.23D-09 BMatP= 1.17D-07
 IDIUse=1 WtCom= 1.00D+00 WtEn= 0.00D+00
 Coeff-Com:  0.221D-03 0.199D-03 0.602D-03-0.108D-01 0.370D-01 0.390D-01
 Coeff-Com: -0.560D+00 0.149D+01
 Coeff:      0.221D-03 0.199D-03 0.602D-03-0.108D-01 0.370D-01 0.390D-01
 Coeff:     -0.560D+00 0.149D+01
 Gap=     0.440 Goal=   None    Shift=    0.000
 Gap=     0.533 Goal=   None    Shift=    0.000
 RMSDP=1.64D-06 MaxDP=3.84D-05 DE=-1.28D-07 OVMax= 1.13D-04

 Cycle   9  Pass 1  IDiag  1:
 RMSU=  3.77D-07    CP:  6.18D-01  1.28D+00  1.27D+00  1.41D+00  1.82D+00
                    CP:  1.54D+00  1.85D+00  1.69D+00
 FoFJK:  IHMeth= 1 ICntrl=     0 DoSepK=T KAlg= 1 I1Cent= 0 FoldK=F
 E= -40.8715197671572     Delta-E=       -0.000000010398 Rises=F Damp=F
 DIIS: error= 2.93D-06 at cycle   9 NSaved=   9.
 NSaved= 9 IEnMin= 9 EnMin= -40.8715197671572     IErMin= 9 ErrMin= 2.93D-06
 ErrMax= 2.93D-06 EMaxC= 1.00D-01 BMatC= 3.81D-10 BMatP= 9.23D-09
 IDIUse=1 WtCom= 1.00D+00 WtEn= 0.00D+00
 Coeff-Com: -0.385D-04-0.195D-04-0.130D-03 0.178D-02-0.849D-02 0.601D-03
 Coeff-Com:  0.115D+00-0.480D+00 0.137D+01
 Coeff:     -0.385D-04-0.195D-04-0.130D-03 0.178D-02-0.849D-02 0.601D-03
 Coeff:      0.115D+00-0.480D+00 0.137D+01
 Gap=     0.440 Goal=   None    Shift=    0.000
 Gap=     0.533 Goal=   None    Shift=    0.000
 RMSDP=3.92D-07 MaxDP=1.16D-05 DE=-1.04D-08 OVMax= 2.12D-05

 Cycle  10  Pass 1  IDiag  1:
 RMSU=  8.13D-08    CP:  6.18D-01  1.28D+00  1.27D+00  1.41D+00  1.82D+00
                    CP:  1.54D+00  1.85D+00  1.83D+00  1.46D+00
 FoFJK:  IHMeth= 1 ICntrl=     0 DoSepK=T KAlg= 1 I1Cent= 0 FoldK=F
 E= -40.8715197675852     Delta-E=       -0.000000000428 Rises=F Damp=F
 DIIS: error= 5.51D-07 at cycle  10 NSaved=  10.
 NSaved=10 IEnMin=10 EnMin= -40.8715197675852     IErMin=10 ErrMin= 5.51D-07
 ErrMax= 5.51D-07 EMaxC= 1.00D-01 BMatC= 2.76D-11 BMatP= 3.81D-10
 IDIUse=1 WtCom= 1.00D+00 WtEn= 0.00D+00
 Coeff-Com:  0.276D-05 0.461D-05 0.485D-04-0.210D-03 0.103D-02-0.210D-02
 Coeff-Com: -0.520D-02 0.552D-01-0.383D+00 0.133D+01
 Coeff:      0.276D-05 0.461D-05 0.485D-04-0.210D-03 0.103D-02-0.210D-02
 Coeff:     -0.520D-02 0.552D-01-0.383D+00 0.133D+01
 Gap=     0.440 Goal=   None    Shift=    0.000
 Gap=     0.533 Goal=   None    Shift=    0.000
 RMSDP=1.03D-07 MaxDP=3.70D-06 DE=-4.28D-10 OVMax= 4.38D-06

 Cycle  11  Pass 1  IDiag  1:
 RMSU=  1.45D-08    CP:  6.18D-01  1.28D+00  1.27D+00  1.41D+00  1.82D+00
                    CP:  1.54D+00  1.85D+00  1.85D+00  1.54D+00  1.50D+00
 FoFJK:  IHMeth= 1 ICntrl=     0 DoSepK=T KAlg= 1 I1Cent= 0 FoldK=F
 E= -40.8715197676195     Delta-E=       -0.000000000034 Rises=F Damp=F
 DIIS: error= 1.63D-07 at cycle  11 NSaved=  11.
 NSaved=11 IEnMin=11 EnMin= -40.8715197676195     IErMin=11 ErrMin= 1.63D-07
 ErrMax= 1.63D-07 EMaxC= 1.00D-01 BMatC= 3.50D-12 BMatP= 2.76D-11
 IDIUse=1 WtCom= 1.00D+00 WtEn= 0.00D+00
 Coeff-Com:  0.816D-06-0.908D-06-0.128D-04-0.171D-04 0.138D-03 0.111D-02
 Coeff-Com: -0.800D-02 0.197D-01 0.340D-01-0.580D+00 0.153D+01
 Coeff:      0.816D-06-0.908D-06-0.128D-04-0.171D-04 0.138D-03 0.111D-02
 Coeff:     -0.800D-02 0.197D-01 0.340D-01-0.580D+00 0.153D+01
 Gap=     0.440 Goal=   None    Shift=    0.000
 Gap=     0.533 Goal=   None    Shift=    0.000
 RMSDP=2.66D-08 MaxDP=4.17D-07 DE=-3.42D-11 OVMax= 1.27D-06

 Cycle  12  Pass 1  IDiag  1:
 RMSU=  5.65D-09    CP:  6.18D-01  1.28D+00  1.27D+00  1.41D+00  1.82D+00
                    CP:  1.54D+00  1.85D+00  1.85D+00  1.55D+00  1.68D+00
                    CP:  1.72D+00
 FoFJK:  IHMeth= 1 ICntrl=     0 DoSepK=T KAlg= 1 I1Cent= 0 FoldK=F
 E= -40.8715197676231     Delta-E=       -0.000000000004 Rises=F Damp=F
 DIIS: error= 3.42D-08 at cycle  12 NSaved=  12.
 NSaved=12 IEnMin=12 EnMin= -40.8715197676231     IErMin=12 ErrMin= 3.42D-08
 ErrMax= 3.42D-08 EMaxC= 1.00D-01 BMatC= 1.76D-13 BMatP= 3.50D-12
 IDIUse=1 WtCom= 1.00D+00 WtEn= 0.00D+00
 Coeff-Com: -0.293D-07 0.553D-06 0.252D-05-0.304D-05-0.426D-04-0.200D-03
 Coeff-Com:  0.237D-02-0.868D-02 0.150D-01 0.962D-01-0.533D+00 0.143D+01
 Coeff:     -0.293D-07 0.553D-06 0.252D-05-0.304D-05-0.426D-04-0.200D-03
 Coeff:      0.237D-02-0.868D-02 0.150D-01 0.962D-01-0.533D+00 0.143D+01
 Gap=     0.440 Goal=   None    Shift=    0.000
 Gap=     0.533 Goal=   None    Shift=    0.000
 RMSDP=7.72D-09 MaxDP=2.15D-07 DE=-3.64D-12 OVMax= 2.48D-07

 SCF Done:  E(ULC-B+HF-LYP) =  -40.8715197676     A.U. after   12 cycles
             Convg  =    0.7723D-08             -V/T =  2.0044
 <Sx>= 0.0000 <Sy>= 0.0000 <Sz>= 0.5000 <S**2>= 0.7561 S= 0.5030
 <L.S>= 0.000000000000E+00
 KE= 4.069371928085D+01 PE=-1.253571577579D+02 EE= 2.813954299160D+01
 Annihilation of the first spin contaminant:
 S**2 before annihilation     0.7561,   after     0.7500
 Leave Link  502 at Wed Nov  3 01:11:32 2010, MaxMem=  786432000 cpu:     281.1
 (Enter /share/apps/G09A02/g09/l601.exe)
 Copying SCF densities to generalized density rwf, IOpCl= 1 IROHF=0.

 **********************************************************************

            Population analysis using the SCF density.

 **********************************************************************

 Alpha  occ. eigenvalues --  -10.12876  -0.87483  -0.59374  -0.53862  -0.53862
 Alpha  occ. eigenvalues --   -0.37239
 Alpha virt. eigenvalues --    0.06755   0.09243   0.09243   0.10387   0.22053
 Alpha virt. eigenvalues --    0.22053   0.24864   0.28894   0.34949   0.34949
 Alpha virt. eigenvalues --    0.39232   0.41052   0.41052   0.46389   0.62589
 Alpha virt. eigenvalues --    0.62589   0.67006   0.71073   0.73131   0.73131
 Alpha virt. eigenvalues --    0.78002   0.80621   0.80621   0.90433   0.97888
 Alpha virt. eigenvalues --    1.06871   1.06871   1.10196   1.10196   1.17602
 Alpha virt. eigenvalues --    1.26985   1.26985   1.33045   1.40813   1.40813
 Alpha virt. eigenvalues --    1.56801   1.94243   2.06536   2.06536   2.07102
 Alpha virt. eigenvalues --    2.07102   2.19108   2.48431   2.68596   2.78007
 Alpha virt. eigenvalues --    2.78007   2.96027   3.07695   3.11609   3.11609
 Alpha virt. eigenvalues --    3.43784   3.43784   3.44595   3.64897   3.64897
 Alpha virt. eigenvalues --    3.73753   3.87844   3.87844   3.99331   4.08529
 Alpha virt. eigenvalues --    4.27485   4.27485   4.33316   4.33316   4.47782
 Alpha virt. eigenvalues --    4.52918   4.52918   4.62480   5.17680   5.74476
 Alpha virt. eigenvalues --    5.85817   5.85817   7.28520   7.28521   7.87091
 Alpha virt. eigenvalues --    7.87091   7.98400  24.25196
  Beta  occ. eigenvalues --  -10.12366  -0.86071  -0.53647  -0.53522  -0.53522
  Beta virt. eigenvalues --   -0.00198   0.07470   0.09149   0.09149   0.10687
  Beta virt. eigenvalues --    0.22223   0.22223   0.25439   0.29772   0.35194
  Beta virt. eigenvalues --    0.35194   0.40176   0.41034   0.41034   0.50443
  Beta virt. eigenvalues --    0.63401   0.63401   0.69903   0.71382   0.75602
  Beta virt. eigenvalues --    0.75602   0.78022   0.81216   0.81216   0.90883
  Beta virt. eigenvalues --    0.97879   1.07444   1.07444   1.10709   1.10709
  Beta virt. eigenvalues --    1.20725   1.27172   1.27172   1.33468   1.41165
  Beta virt. eigenvalues --    1.41165   1.57550   1.95989   2.07444   2.07444
  Beta virt. eigenvalues --    2.07744   2.07744   2.21103   2.54524   2.74006
  Beta virt. eigenvalues --    2.78502   2.78502   3.00575   3.07904   3.12623
  Beta virt. eigenvalues --    3.12623   3.44403   3.44403   3.45268   3.65273
  Beta virt. eigenvalues --    3.65273   3.75531   4.00733   4.00733   4.01426
  Beta virt. eigenvalues --    4.13139   4.27207   4.27207   4.33249   4.33249
  Beta virt. eigenvalues --    4.52242   4.53148   4.53148   4.62631   5.18154
  Beta virt. eigenvalues --    5.75880   5.86084   5.86084   7.30085   7.30085
  Beta virt. eigenvalues --    7.87983   7.87983   8.00535  24.25886
          Condensed to atoms (all electrons):
              1          2          3          4          5          6
     1  C    5.157820   0.365157   0.404075   0.404076   0.404076  -0.053027
     2  H    0.365157   0.494045  -0.014508  -0.014509  -0.014509  -0.023384
     3  H    0.404075  -0.014508   0.470579  -0.017391  -0.017391   0.001398
     4  H    0.404076  -0.014509  -0.017391   0.470575  -0.017390   0.001398
     5  H    0.404076  -0.014509  -0.017391  -0.017390   0.470575   0.001398
     6  H   -0.053027  -0.023384   0.001398   0.001398   0.001398   1.117469
 Mulliken atomic charges:
              1
     1  C   -0.682178
     2  H    0.207709
     3  H    0.173237
     4  H    0.173242
     5  H    0.173242
     6  H   -0.045252
 Sum of Mulliken atomic charges =   0.00000
 Mulliken charges with hydrogens summed into heavy atoms:
              1
     1  C    0.000000
 Sum of Mulliken charges with hydrogens summed into heavy atoms =   0.00000
          Atomic-Atomic Spin Densities.
              1          2          3          4          5          6
     1  C    0.307922   0.048314  -0.001436  -0.001436  -0.001436  -0.086678
     2  H    0.048314  -0.070891   0.000713   0.000713   0.000713  -0.109269
     3  H   -0.001436   0.000713  -0.005847   0.000568   0.000568   0.002877
     4  H   -0.001436   0.000713   0.000568  -0.005846   0.000568   0.002877
     5  H   -0.001436   0.000713   0.000568   0.000568  -0.005846   0.002877
     6  H   -0.086678  -0.109269   0.002877   0.002877   0.002877   1.059446
 Mulliken atomic spin densities:
              1
     1  C    0.265249
     2  H   -0.129707
     3  H   -0.002558
     4  H   -0.002557
     5  H   -0.002557
     6  H    0.872130
 Sum of Mulliken atomic spin densities =   1.00000
 Electronic spatial extent (au):  <R**2>=             59.7864
 Charge=              0.0000 electrons
 Dipole moment (field-independent basis, Debye):
    X=              0.0000    Y=              0.0000    Z=             -0.5581  Tot=              0.5581
 Quadrupole moment (field-independent basis, Debye-Ang):
   XX=             -9.7529   YY=             -9.7529   ZZ=            -11.7158
   XY=              0.0000   XZ=              0.0000   YZ=              0.0000
 Traceless Quadrupole moment (field-independent basis, Debye-Ang):
   XX=              0.6543   YY=              0.6543   ZZ=             -1.3086
   XY=              0.0000   XZ=              0.0000   YZ=              0.0000
 Octapole moment (field-independent basis, Debye-Ang**2):
  XXX=              0.7294  YYY=              0.0000  ZZZ=            -14.3958  XYY=             -0.7294
  XXY=              0.0000  XXZ=             -3.9442  XZZ=              0.0000  YZZ=              0.0000
  YYZ=             -3.9442  XYZ=              0.0000
 Hexadecapole moment (field-independent basis, Debye-Ang**3):
 XXXX=            -18.0990 YYYY=            -18.0990 ZZZZ=            -79.6953 XXXY=              0.0000
 XXXZ=             -0.4147 YYYX=              0.0000 YYYZ=              0.0000 ZZZX=              0.0000
 ZZZY=              0.0000 XXYY=             -6.0330 XXZZ=            -14.6326 YYZZ=            -14.6326
 XXYZ=              0.0000 YYXZ=              0.4147 ZZXY=              0.0000
 N-N= 1.565237571783D+01 E-N=-1.858986563822D+02  KE= 6.060653077091D+01
                          Isotropic Fermi Contact Couplings
        Atom                 a.u.       MegaHertz       Gauss      10(-4) cm-1
     1  C(13)              0.12693     142.69790      50.91816      47.59890
     2  H(1)              -0.02029     -90.69347     -32.36168     -30.25209
     3  H(1)              -0.00244     -10.88765      -3.88498      -3.63173
     4  H(1)              -0.00244     -10.88763      -3.88498      -3.63172
     5  H(1)              -0.00244     -10.88763      -3.88498      -3.63172
     6  H(1)               0.26085    1165.97809     416.04996     388.92843
 --------------------------------------------------------
       Center         ----  Spin Dipole Couplings  ----
                      3XX-RR        3YY-RR        3ZZ-RR
 --------------------------------------------------------
     1   Atom       -0.179763     -0.179763      0.359525
     2   Atom       -0.099029     -0.099029      0.198059
     3   Atom        0.015630     -0.022851      0.007221
     4   Atom       -0.013231      0.006010      0.007221
     5   Atom       -0.013231      0.006010      0.007221
     6   Atom        0.006456      0.006456     -0.012912
 --------------------------------------------------------
                        XY            XZ            YZ
 --------------------------------------------------------
     1   Atom        0.000000      0.000000      0.000000
     2   Atom        0.000000      0.000000      0.000000
     3   Atom        0.000000     -0.013833      0.000000
     4   Atom        0.016663      0.006917      0.011980
     5   Atom       -0.016663      0.006917     -0.011980
     6   Atom        0.000000      0.000000      0.000000
 --------------------------------------------------------


 ---------------------------------------------------------------------------------
              Anisotropic Spin Dipole Couplings in Principal Axis System
 ---------------------------------------------------------------------------------

       Atom             a.u.   MegaHertz   Gauss  10(-4) cm-1        Axes

              Baa    -0.1798   -24.122    -8.607    -8.046  0.0000  1.0000  0.0000
     1 C(13)  Bbb    -0.1798   -24.122    -8.607    -8.046  1.0000  0.0000  0.0000
              Bcc     0.3595    48.245    17.215    16.093  0.0000  0.0000  1.0000
 
              Baa    -0.0990   -52.837   -18.854   -17.625  1.0000  0.0000  0.0000
     2 H(1)   Bbb    -0.0990   -52.837   -18.854   -17.625  0.0000  1.0000  0.0000
              Bcc     0.1981   105.675    37.707    35.249  0.0000  0.0000  1.0000
 
              Baa    -0.0229   -12.192    -4.351    -4.067  0.0000  1.0000  0.0000
     3 H(1)   Bbb    -0.0030    -1.618    -0.577    -0.540  0.5955  0.0000  0.8034
              Bcc     0.0259    13.810     4.928     4.607  0.8034  0.0000 -0.5955
 
              Baa    -0.0229   -12.192    -4.351    -4.067  0.8660 -0.5000  0.0000
     4 H(1)   Bbb    -0.0030    -1.618    -0.577    -0.540 -0.2977 -0.5157  0.8034
              Bcc     0.0259    13.810     4.928     4.607  0.4017  0.6957  0.5955
 
              Baa    -0.0229   -12.192    -4.351    -4.067  0.8660  0.5000  0.0000
     5 H(1)   Bbb    -0.0030    -1.618    -0.577    -0.540 -0.2977  0.5157  0.8034
              Bcc     0.0259    13.810     4.928     4.607 -0.4017  0.6957 -0.5955
 
              Baa    -0.0129    -6.889    -2.458    -2.298  0.0000  0.0000  1.0000
     6 H(1)   Bbb     0.0065     3.445     1.229     1.149  1.0000  0.0000  0.0000
              Bcc     0.0065     3.445     1.229     1.149  0.0000  1.0000  0.0000
 

 ---------------------------------------------------------------------------------

 No NMR shielding tensors so no spin-rotation constants.
 Leave Link  601 at Wed Nov  3 01:11:33 2010, MaxMem=  786432000 cpu:       3.8
 (Enter /share/apps/G09A02/g09/l9999.exe)
 1\1\GINC-COMPUTE-0-7\SP\ULC-BLYP\6-311+G(3df,2p)\C1H5(2)\WENXINZY\03-N
 ov-2010\0\\#p lc-blyp/6-311+g(3df,2p) nosymm scf=tight\\7 H_CH4\\0,2\C
 \H,1,1.1508319\H,1,1.0887632,2,107.9046011\H,1,1.0887632,2,107.9046011
 ,3,120.,0\H,1,1.0887632,2,107.9046011,3,-120.,0\H,2,1.164573,1,180.,3,
 0.,0\\Version=EM64L-G09RevA.02\HF=-40.8715198\S2=0.756082\S2-1=0.\S2A=
 0.750003\RMSD=7.723e-09\Dipole=0.0000013,0.,-0.2195792\Quadrupole=0.48
 64466,0.486449,-0.9728956,0.,0.0000009,0.\PG=C03V [C3(H1H1C1),3SGV(H1)
 ]\\@


 IT IS BETTER TO THINK YOU ARE HALF DRY THAN TO KNOW YOU
 ARE ALL WET.  -- SNOOPY
 Job cpu time:  0 days  0 hours  4 minutes 54.8 seconds.
 File lengths (MBytes):  RWF=      9 Int=      0 D2E=      0 Chk=      1 Scr=      1
 Normal termination of Gaussian 09 at Wed Nov  3 01:11:33 2010.
