 Entering Gaussian System, Link 0=/share/apps/G09A02/g09/g09
 Input=./.script12553/Job_H2_CH3_13.com
 Output=./.script12553/Job_H2_CH3_13.log
 Initial command:
 /share/apps/G09A02/g09/l1.exe /state/partition1/wenxinzy/scratch/Gau-18881.inp -scrdir=/state/partition1/wenxinzy/scratch/
 Default is to use a total of   8 processors:
                                8 via shared-memory
                                1 via Linda
 Entering Link 1 = /share/apps/G09A02/g09/l1.exe PID=     18882.
  
 Copyright (c) 1988,1990,1992,1993,1995,1998,2003,2009, Gaussian, Inc.
                  All Rights Reserved.
  
 This is part of the Gaussian(R) 09 program.  It is based on
 the Gaussian(R) 03 system (copyright 2003, Gaussian, Inc.),
 the Gaussian(R) 98 system (copyright 1998, Gaussian, Inc.),
 the Gaussian(R) 94 system (copyright 1995, Gaussian, Inc.),
 the Gaussian 92(TM) system (copyright 1992, Gaussian, Inc.),
 the Gaussian 90(TM) system (copyright 1990, Gaussian, Inc.),
 the Gaussian 88(TM) system (copyright 1988, Gaussian, Inc.),
 the Gaussian 86(TM) system (copyright 1986, Carnegie Mellon
 University), and the Gaussian 82(TM) system (copyright 1983,
 Carnegie Mellon University). Gaussian is a federally registered
 trademark of Gaussian, Inc.
  
 This software contains proprietary and confidential information,
 including trade secrets, belonging to Gaussian, Inc.
  
 This software is provided under written license and may be
 used, copied, transmitted, or stored only in accord with that
 written license.
  
 The following legend is applicable only to US Government
 contracts under FAR:
  
                    RESTRICTED RIGHTS LEGEND
  
 Use, reproduction and disclosure by the US Government is
 subject to restrictions as set forth in subparagraphs (a)
 and (c) of the Commercial Computer Software - Restricted
 Rights clause in FAR 52.227-19.
  
 Gaussian, Inc.
 340 Quinnipiac St., Bldg. 40, Wallingford CT 06492
  
  
 ---------------------------------------------------------------
 Warning -- This program may not be used in any manner that
 competes with the business of Gaussian, Inc. or will provide
 assistance to any competitor of Gaussian, Inc.  The licensee
 of this program is prohibited from giving any competitor of
 Gaussian, Inc. access to this program.  By using this program,
 the user acknowledges that Gaussian, Inc. is engaged in the
 business of creating and licensing software in the field of
 computational chemistry and represents and warrants to the
 licensee that it is not a competitor of Gaussian, Inc. and that
 it will not use this program in any manner prohibited above.
 ---------------------------------------------------------------
  

 Cite this work as:
 Gaussian 09, Revision A.02,
 M. J. Frisch, G. W. Trucks, H. B. Schlegel, G. E. Scuseria, 
 M. A. Robb, J. R. Cheeseman, G. Scalmani, V. Barone, B. Mennucci, 
 G. A. Petersson, H. Nakatsuji, M. Caricato, X. Li, H. P. Hratchian, 
 A. F. Izmaylov, J. Bloino, G. Zheng, J. L. Sonnenberg, M. Hada, 
 M. Ehara, K. Toyota, R. Fukuda, J. Hasegawa, M. Ishida, T. Nakajima, 
 Y. Honda, O. Kitao, H. Nakai, T. Vreven, J. A. Montgomery, Jr., 
 J. E. Peralta, F. Ogliaro, M. Bearpark, J. J. Heyd, E. Brothers, 
 K. N. Kudin, V. N. Staroverov, R. Kobayashi, J. Normand, 
 K. Raghavachari, A. Rendell, J. C. Burant, S. S. Iyengar, J. Tomasi, 
 M. Cossi, N. Rega, J. M. Millam, M. Klene, J. E. Knox, J. B. Cross, 
 V. Bakken, C. Adamo, J. Jaramillo, R. Gomperts, R. E. Stratmann, 
 O. Yazyev, A. J. Austin, R. Cammi, C. Pomelli, J. W. Ochterski, 
 R. L. Martin, K. Morokuma, V. G. Zakrzewski, G. A. Voth, 
 P. Salvador, J. J. Dannenberg, S. Dapprich, A. D. Daniels, 
 O. Farkas, J. B. Foresman, J. V. Ortiz, J. Cioslowski, 
 and D. J. Fox, Gaussian, Inc., Wallingford CT, 2009.
 
 ******************************************
 Gaussian 09:  EM64L-G09RevA.02 11-Jun-2009
                 3-Nov-2010 
 ******************************************
 %chk=/state/partition1/wenxinzy/scratch/H2_CH3_13.chk
 %nproc=8
 Will use up to    8 processors via shared memory.
 %mem=6000mb
 -------------------------------------------
 #p lc-blyp/6-311+g(3df,2p) nosymm scf=tight
 -------------------------------------------
 1/38=1/1;
 2/12=2,15=1,17=6,18=5,40=1/2;
 3/5=4,6=6,7=216,11=2,16=1,25=1,30=1,74=1000402/1,2,3;
 4//1;
 5/5=2,32=2,38=5/2;
 6/7=2,8=2,9=2,10=2,28=1/1;
 99/5=1,9=1/99;
 Leave Link    1 at Wed Nov  3 01:43:03 2010, MaxMem=  786432000 cpu:       0.4
 (Enter /share/apps/G09A02/g09/l101.exe)
 ---------
 14 H2+CH3
 ---------
 Symbolic Z-matrix:
 Charge =  0 Multiplicity = 2
 C
 H1                   C    R1
 H2                   C    R2       H1   A1
 H3                   C    R2       H1   A1       H2    120.     0
 H4                   C    R2       H1   A1       H2   -120.     0
 H5                   H1   R3       C     180.     H2    0.       0
       Variables:
  R1                    2.13168                  
  R2                    1.07935                  
  A1                   91.87482                  
  R3                    0.7504                   
 
 NAtoms=      6 NQM=      6 NQMF=      0 NMic=      0 NMicF=      0 NTot=      6.
                    Isotopes and Nuclear Properties:
 (Nuclear quadrupole moments (NQMom) in fm**2, nuclear magnetic moments (NMagM)
  in nuclear magnetons)

  Atom         1           2           3           4           5           6
 IAtWgt=          12           1           1           1           1           1
 AtmWgt=  12.0000000   1.0078250   1.0078250   1.0078250   1.0078250   1.0078250
 NucSpn=           0           1           1           1           1           1
 AtZEff=   0.0000000   0.0000000   0.0000000   0.0000000   0.0000000   0.0000000
 NQMom=    0.0000000   0.0000000   0.0000000   0.0000000   0.0000000   0.0000000
 NMagM=    0.0000000   2.7928460   2.7928460   2.7928460   2.7928460   2.7928460
 Leave Link  101 at Wed Nov  3 01:43:03 2010, MaxMem=  786432000 cpu:       1.0
 (Enter /share/apps/G09A02/g09/l202.exe)
                          Input orientation:                          
 ---------------------------------------------------------------------
 Center     Atomic      Atomic             Coordinates (Angstroms)
 Number     Number       Type             X           Y           Z
 ---------------------------------------------------------------------
      1          6           0        0.000000    0.000000    0.000000
      2          1           0        0.000000    0.000000    2.131676
      3          1           0        1.078776    0.000000   -0.035312
      4          1           0       -0.539388   -0.934247   -0.035312
      5          1           0       -0.539388    0.934247   -0.035312
      6          1           0        0.000000    0.000000    2.882075
 ---------------------------------------------------------------------
                    Distance matrix (angstroms):
                    1          2          3          4          5
     1  C    0.000000
     2  H    2.131676   0.000000
     3  H    1.079353   2.420660   0.000000
     4  H    1.079353   2.420660   1.868494   0.000000
     5  H    1.079353   2.420660   1.868494   1.868494   0.000000
     6  H    2.882075   0.750398   3.110450   3.110450   3.110450
                    6
     6  H    0.000000
 Symmetry turned off by external request.
 Stoichiometry    CH5(2)
 Framework group  C3V[C3(HHC),3SGV(H)]
 Deg. of freedom     4
 Full point group                 C3V     NOp   6
 Rotational constants (GHZ):    143.6311246     38.0608081     38.0608081
 Leave Link  202 at Wed Nov  3 01:43:03 2010, MaxMem=  786432000 cpu:       0.1
 (Enter /share/apps/G09A02/g09/l301.exe)
 Standard basis: 6-311+G(3df,2p) (5D, 7F)
 Ernie: Thresh=  0.10000D-02 Tol=  0.10000D-05 Strict=F.
 Integral buffers will be    131072 words long.
 Raffenetti 2 integral format.
 Two-electron integral symmetry is turned off.
    84 basis functions,   113 primitive gaussians,    90 cartesian basis functions
     6 alpha electrons        5 beta electrons
       nuclear repulsion energy        14.1370695233 Hartrees.
 IExCor=10402 DFT=T Ex=LC-B+HF Corr=LYP ExCW=0 ScaHFX=  1.000000
 ScaDFX=  1.000000  1.000000  1.000000  1.000000 ScalE2=  1.000000  1.000000
 IRadAn=      0 IRanWt=     -1 IRanGd=            0 ICorTp=0
  HFx wShort=  0.000000 wLong=  0.470000 cFull=  0.000000 cShort=  0.000000 cLong=  1.000000
  DFx wShort=  0.000000 wLong=  0.470000 cFull=  0.000000 cShort=  0.000000 cLong=  1.000000
 NAtoms=    6 NActive=    6 NUniq=    6 SFac= 7.50D-01 NAtFMM=   80 NAOKFM=F Big=F
 Leave Link  301 at Wed Nov  3 01:43:03 2010, MaxMem=  786432000 cpu:       0.7
 (Enter /share/apps/G09A02/g09/l302.exe)
 NPDir=0 NMtPBC=     1 NCelOv=     1 NCel=       1 NClECP=     1 NCelD=      1
         NCelK=      1 NCelE2=     1 NClLst=     1 CellRange=     0.0.
 One-electron integrals computed using PRISM.
 NBasis=    84 RedAO= T  NBF=    84
 NBsUse=    84 1.00D-06 NBFU=    84
 Precomputing XC quadrature grid using
 IXCGrd= 2 IRadAn=           0 IRanWt=          -1 IRanGd=           0 AccXCQ= 1.00D-10.
 NRdTot=     383 NPtTot=       48302 NUsed=       51074 NTot=       51106
 NSgBfM=    90    90    90    90    90 NAtAll=     6     6.
 Leave Link  302 at Wed Nov  3 01:43:04 2010, MaxMem=  786432000 cpu:       2.6
 (Enter /share/apps/G09A02/g09/l303.exe)
 DipDrv:  MaxL=1.
 Leave Link  303 at Wed Nov  3 01:43:04 2010, MaxMem=  786432000 cpu:       0.4
 (Enter /share/apps/G09A02/g09/l401.exe)
 Harris functional with IExCor=10402 diagonalized for initial guess.
 ExpMin= 4.38D-02 ExpMax= 4.56D+03 ExpMxC= 6.82D+02 IAcc=2 IRadAn=         0 AccDes= 0.00D+00
 HarFok:  IExCor=10402 AccDes= 0.00D+00 IRadAn=         0 IDoV= 1
 ScaDFX=  1.000000  1.000000  1.000000  1.000000
 FoFCou: FMM=F IPFlag=           0 FMFlag=      100000 FMFlg1=           0
         NFxFlg=           0 DoJE=T BraDBF=F KetDBF=T FulRan=T
         Omega=  0.000000  0.000000  1.000000  0.000000  0.000000 ICntrl=     500 IOpCl=  0
         NMat0=    1 NMatS0=    1 NMatT0=    0 NMatD0=    1 NMtDS0=    0 NMtDT0=    0
         I1Cent=           4 NGrid=           0.
 Symmetry not used in FoFCou.
 Harris En= -38.5326937959237    
 Initial guess <Sx>= 0.0000 <Sy>= 0.0000 <Sz>= 0.5000 <S**2>= 0.7500 S= 0.5000
 Leave Link  401 at Wed Nov  3 01:43:04 2010, MaxMem=  786432000 cpu:       3.7
 (Enter /share/apps/G09A02/g09/l502.exe)
 UHF open shell SCF:
 Requested convergence on RMS density matrix=1.00D-08 within 128 cycles.
 Requested convergence on MAX density matrix=1.00D-06.
 Requested convergence on             energy=1.00D-06.
 No special actions if energy rises.
 Using DIIS extrapolation, IDIIS=  1040.
 Two-electron integral symmetry not used.
        51007 words used for storage of precomputed grid.
 IEnd=       94725 IEndB=       94725 NGot=   786432000 MDV=   786362106
 LenX=   786362106 LenY=   786353565
 Fock matrices will be formed incrementally for  20 cycles.

 Cycle   1  Pass 1  IDiag  1:
 FoFJK:  IHMeth= 1 ICntrl=     0 DoSepK=T KAlg= 1 I1Cent= 0 FoldK=F
 FoFCou: FMM=F IPFlag=           0 FMFlag=      100000 FMFlg1=           0
         NFxFlg=           0 DoJE=T BraDBF=F KetDBF=F FulRan=T
         Omega=  0.000000  0.000000  1.000000  0.000000  0.000000 ICntrl=     500 IOpCl=  0
         NMat0=    1 NMatS0=    1 NMatT0=    0 NMatD0=    1 NMtDS0=    0 NMtDT0=    0
         I1Cent=           0 NGrid=           0.
 Symmetry not used in FoFCou.
 E= -40.8513810711696    
 DIIS: error= 1.80D-02 at cycle   1 NSaved=   1.
 NSaved= 1 IEnMin= 1 EnMin= -40.8513810711696     IErMin= 1 ErrMin= 1.80D-02
 ErrMax= 1.80D-02 EMaxC= 1.00D-01 BMatC= 6.70D-02 BMatP= 6.70D-02
 IDIUse=3 WtCom= 8.20D-01 WtEn= 1.80D-01
 Coeff-Com:  0.100D+01
 Coeff-En:   0.100D+01
 Coeff:      0.100D+01
 Gap=     0.382 Goal=   None    Shift=    0.000
 Gap=     0.612 Goal=   None    Shift=    0.000
 GapD=    0.382 DampG=1.000 DampE=0.500 DampFc=0.5000 IDamp=-1.
 Damping current iteration by 5.00D-01
 RMSDP=1.78D-03 MaxDP=6.70D-02              OVMax= 5.85D-02

 Cycle   2  Pass 1  IDiag  1:
 RMSU=  6.92D-04    CP:  9.76D-01
 FoFJK:  IHMeth= 1 ICntrl=     0 DoSepK=T KAlg= 1 I1Cent= 0 FoldK=F
 E= -40.8612200307118     Delta-E=       -0.009838959542 Rises=F Damp=T
 DIIS: error= 7.95D-03 at cycle   2 NSaved=   2.
 NSaved= 2 IEnMin= 2 EnMin= -40.8612200307118     IErMin= 2 ErrMin= 7.95D-03
 ErrMax= 7.95D-03 EMaxC= 1.00D-01 BMatC= 1.03D-02 BMatP= 6.70D-02
 IDIUse=3 WtCom= 9.20D-01 WtEn= 7.95D-02
 Coeff-Com: -0.398D+00 0.140D+01
 Coeff-En:   0.000D+00 0.100D+01
 Coeff:     -0.367D+00 0.137D+01
 Gap=     0.424 Goal=   None    Shift=    0.000
 Gap=     0.568 Goal=   None    Shift=    0.000
 RMSDP=1.17D-03 MaxDP=3.05D-02 DE=-9.84D-03 OVMax= 4.42D-02

 Cycle   3  Pass 1  IDiag  1:
 RMSU=  6.29D-04    CP:  9.59D-01  2.09D+00
 FoFJK:  IHMeth= 1 ICntrl=     0 DoSepK=T KAlg= 1 I1Cent= 0 FoldK=F
 E= -40.8721584301660     Delta-E=       -0.010938399454 Rises=F Damp=F
 DIIS: error= 2.53D-03 at cycle   3 NSaved=   3.
 NSaved= 3 IEnMin= 3 EnMin= -40.8721584301660     IErMin= 3 ErrMin= 2.53D-03
 ErrMax= 2.53D-03 EMaxC= 1.00D-01 BMatC= 7.81D-04 BMatP= 1.03D-02
 IDIUse=3 WtCom= 9.75D-01 WtEn= 2.53D-02
 Coeff-Com: -0.523D-01-0.102D+00 0.115D+01
 Coeff-En:   0.000D+00 0.000D+00 0.100D+01
 Coeff:     -0.509D-01-0.998D-01 0.115D+01
 Gap=     0.427 Goal=   None    Shift=    0.000
 Gap=     0.569 Goal=   None    Shift=    0.000
 RMSDP=3.82D-04 MaxDP=8.52D-03 DE=-1.09D-02 OVMax= 2.19D-02

 Cycle   4  Pass 1  IDiag  1:
 RMSU=  9.49D-05    CP:  9.53D-01  2.41D+00  1.33D+00
 FoFJK:  IHMeth= 1 ICntrl=     0 DoSepK=T KAlg= 1 I1Cent= 0 FoldK=F
 E= -40.8727619818120     Delta-E=       -0.000603551646 Rises=F Damp=F
 DIIS: error= 9.87D-04 at cycle   4 NSaved=   4.
 NSaved= 4 IEnMin= 4 EnMin= -40.8727619818120     IErMin= 4 ErrMin= 9.87D-04
 ErrMax= 9.87D-04 EMaxC= 1.00D-01 BMatC= 6.07D-05 BMatP= 7.81D-04
 IDIUse=3 WtCom= 9.90D-01 WtEn= 9.87D-03
 Coeff-Com:  0.237D-01-0.403D-01-0.316D+00 0.133D+01
 Coeff-En:   0.000D+00 0.000D+00 0.000D+00 0.100D+01
 Coeff:      0.234D-01-0.399D-01-0.313D+00 0.133D+01
 Gap=     0.429 Goal=   None    Shift=    0.000
 Gap=     0.568 Goal=   None    Shift=    0.000
 RMSDP=1.33D-04 MaxDP=3.38D-03 DE=-6.04D-04 OVMax= 9.23D-03

 Cycle   5  Pass 1  IDiag  1:
 RMSU=  1.98D-05    CP:  9.51D-01  2.50D+00  1.45D+00  1.58D+00
 FoFJK:  IHMeth= 1 ICntrl=     0 DoSepK=T KAlg= 1 I1Cent= 0 FoldK=F
 E= -40.8728280498582     Delta-E=       -0.000066068046 Rises=F Damp=F
 DIIS: error= 2.22D-04 at cycle   5 NSaved=   5.
 NSaved= 5 IEnMin= 5 EnMin= -40.8728280498582     IErMin= 5 ErrMin= 2.22D-04
 ErrMax= 2.22D-04 EMaxC= 1.00D-01 BMatC= 4.33D-06 BMatP= 6.07D-05
 IDIUse=3 WtCom= 9.98D-01 WtEn= 2.22D-03
 Coeff-Com: -0.306D-02 0.180D-01 0.349D-01-0.436D+00 0.139D+01
 Coeff-En:   0.000D+00 0.000D+00 0.000D+00 0.000D+00 0.100D+01
 Coeff:     -0.306D-02 0.179D-01 0.348D-01-0.435D+00 0.139D+01
 Gap=     0.429 Goal=   None    Shift=    0.000
 Gap=     0.568 Goal=   None    Shift=    0.000
 RMSDP=2.60D-05 MaxDP=7.11D-04 DE=-6.61D-05 OVMax= 1.73D-03

 Cycle   6  Pass 1  IDiag  1:
 RMSU=  5.59D-06    CP:  9.51D-01  2.50D+00  1.46D+00  1.73D+00  1.65D+00
 FoFJK:  IHMeth= 1 ICntrl=     0 DoSepK=T KAlg= 1 I1Cent= 0 FoldK=F
 E= -40.8728321139518     Delta-E=       -0.000004064094 Rises=F Damp=F
 DIIS: error= 4.93D-05 at cycle   6 NSaved=   6.
 NSaved= 6 IEnMin= 6 EnMin= -40.8728321139518     IErMin= 6 ErrMin= 4.93D-05
 ErrMax= 4.93D-05 EMaxC= 1.00D-01 BMatC= 3.27D-07 BMatP= 4.33D-06
 IDIUse=1 WtCom= 1.00D+00 WtEn= 0.00D+00
 Coeff-Com: -0.156D-02 0.132D-02 0.169D-01-0.361D-01-0.193D+00 0.121D+01
 Coeff:     -0.156D-02 0.132D-02 0.169D-01-0.361D-01-0.193D+00 0.121D+01
 Gap=     0.429 Goal=   None    Shift=    0.000
 Gap=     0.568 Goal=   None    Shift=    0.000
 RMSDP=6.13D-06 MaxDP=1.11D-04 DE=-4.06D-06 OVMax= 2.59D-04

 Cycle   7  Pass 1  IDiag  1:
 RMSU=  2.10D-06    CP:  9.51D-01  2.50D+00  1.46D+00  1.74D+00  1.80D+00
                    CP:  1.53D+00
 FoFJK:  IHMeth= 1 ICntrl=     0 DoSepK=T KAlg= 1 I1Cent= 0 FoldK=F
 E= -40.8728323929608     Delta-E=       -0.000000279009 Rises=F Damp=F
 DIIS: error= 1.37D-05 at cycle   7 NSaved=   7.
 NSaved= 7 IEnMin= 7 EnMin= -40.8728323929608     IErMin= 7 ErrMin= 1.37D-05
 ErrMax= 1.37D-05 EMaxC= 1.00D-01 BMatC= 3.18D-08 BMatP= 3.27D-07
 IDIUse=1 WtCom= 1.00D+00 WtEn= 0.00D+00
 Coeff-Com:  0.558D-03-0.205D-02-0.672D-02 0.516D-01-0.966D-01-0.300D+00
 Coeff-Com:  0.135D+01
 Coeff:      0.558D-03-0.205D-02-0.672D-02 0.516D-01-0.966D-01-0.300D+00
 Coeff:      0.135D+01
 Gap=     0.429 Goal=   None    Shift=    0.000
 Gap=     0.568 Goal=   None    Shift=    0.000
 RMSDP=2.41D-06 MaxDP=4.08D-05 DE=-2.79D-07 OVMax= 1.02D-04

 Cycle   8  Pass 1  IDiag  1:
 RMSU=  4.13D-07    CP:  9.51D-01  2.50D+00  1.46D+00  1.74D+00  1.83D+00
                    CP:  1.79D+00  1.59D+00
 FoFJK:  IHMeth= 1 ICntrl=     0 DoSepK=T KAlg= 1 I1Cent= 0 FoldK=F
 E= -40.8728324235686     Delta-E=       -0.000000030608 Rises=F Damp=F
 DIIS: error= 3.50D-06 at cycle   8 NSaved=   8.
 NSaved= 8 IEnMin= 8 EnMin= -40.8728324235686     IErMin= 8 ErrMin= 3.50D-06
 ErrMax= 3.50D-06 EMaxC= 1.00D-01 BMatC= 1.27D-09 BMatP= 3.18D-08
 IDIUse=1 WtCom= 1.00D+00 WtEn= 0.00D+00
 Coeff-Com:  0.718D-05 0.334D-03 0.108D-02-0.118D-01 0.362D-01 0.130D-01
 Coeff-Com: -0.352D+00 0.131D+01
 Coeff:      0.718D-05 0.334D-03 0.108D-02-0.118D-01 0.362D-01 0.130D-01
 Coeff:     -0.352D+00 0.131D+01
 Gap=     0.429 Goal=   None    Shift=    0.000
 Gap=     0.568 Goal=   None    Shift=    0.000
 RMSDP=4.71D-07 MaxDP=1.10D-05 DE=-3.06D-08 OVMax= 2.29D-05

 Cycle   9  Pass 1  IDiag  1:
 RMSU=  9.65D-08    CP:  9.51D-01  2.50D+00  1.46D+00  1.74D+00  1.83D+00
                    CP:  1.81D+00  1.71D+00  1.54D+00
 FoFJK:  IHMeth= 1 ICntrl=     0 DoSepK=T KAlg= 1 I1Cent= 0 FoldK=F
 E= -40.8728324247064     Delta-E=       -0.000000001138 Rises=F Damp=F
 DIIS: error= 1.09D-06 at cycle   9 NSaved=   9.
 NSaved= 9 IEnMin= 9 EnMin= -40.8728324247064     IErMin= 9 ErrMin= 1.09D-06
 ErrMax= 1.09D-06 EMaxC= 1.00D-01 BMatC= 8.31D-11 BMatP= 1.27D-09
 IDIUse=1 WtCom= 1.00D+00 WtEn= 0.00D+00
 Coeff-Com: -0.354D-04-0.558D-04-0.257D-03 0.338D-02-0.128D-01 0.800D-02
 Coeff-Com:  0.961D-01-0.556D+00 0.146D+01
 Coeff:     -0.354D-04-0.558D-04-0.257D-03 0.338D-02-0.128D-01 0.800D-02
 Coeff:      0.961D-01-0.556D+00 0.146D+01
 Gap=     0.429 Goal=   None    Shift=    0.000
 Gap=     0.568 Goal=   None    Shift=    0.000
 RMSDP=1.30D-07 MaxDP=2.79D-06 DE=-1.14D-09 OVMax= 9.22D-06

 Cycle  10  Pass 1  IDiag  1:
 RMSU=  4.32D-08    CP:  9.51D-01  2.50D+00  1.46D+00  1.74D+00  1.83D+00
                    CP:  1.81D+00  1.72D+00  1.64D+00  1.70D+00
 FoFJK:  IHMeth= 1 ICntrl=     0 DoSepK=T KAlg= 1 I1Cent= 0 FoldK=F
 E= -40.8728324248120     Delta-E=       -0.000000000106 Rises=F Damp=F
 DIIS: error= 4.18D-07 at cycle  10 NSaved=  10.
 NSaved=10 IEnMin=10 EnMin= -40.8728324248120     IErMin=10 ErrMin= 4.18D-07
 ErrMax= 4.18D-07 EMaxC= 1.00D-01 BMatC= 1.13D-11 BMatP= 8.31D-11
 IDIUse=1 WtCom= 1.00D+00 WtEn= 0.00D+00
 Coeff-Com:  0.229D-04 0.329D-05 0.681D-04-0.991D-03 0.469D-02-0.688D-02
 Coeff-Com: -0.260D-01 0.215D+00-0.887D+00 0.170D+01
 Coeff:      0.229D-04 0.329D-05 0.681D-04-0.991D-03 0.469D-02-0.688D-02
 Coeff:     -0.260D-01 0.215D+00-0.887D+00 0.170D+01
 Gap=     0.429 Goal=   None    Shift=    0.000
 Gap=     0.568 Goal=   None    Shift=    0.000
 RMSDP=5.91D-08 MaxDP=1.48D-06 DE=-1.06D-10 OVMax= 3.64D-06

 Cycle  11  Pass 1  IDiag  1:
 RMSU=  1.29D-08    CP:  9.51D-01  2.50D+00  1.46D+00  1.74D+00  1.83D+00
                    CP:  1.81D+00  1.72D+00  1.64D+00  1.98D+00  1.74D+00
 FoFJK:  IHMeth= 1 ICntrl=     0 DoSepK=T KAlg= 1 I1Cent= 0 FoldK=F
 E= -40.8728324248285     Delta-E=       -0.000000000017 Rises=F Damp=F
 DIIS: error= 1.02D-07 at cycle  11 NSaved=  11.
 NSaved=11 IEnMin=11 EnMin= -40.8728324248285     IErMin=11 ErrMin= 1.02D-07
 ErrMax= 1.02D-07 EMaxC= 1.00D-01 BMatC= 6.78D-13 BMatP= 1.13D-11
 IDIUse=1 WtCom= 1.00D+00 WtEn= 0.00D+00
 Coeff-Com: -0.326D-05 0.608D-05 0.365D-05-0.876D-04 0.122D-03 0.121D-02
 Coeff-Com: -0.531D-02 0.991D-02 0.783D-01-0.434D+00 0.135D+01
 Coeff:     -0.326D-05 0.608D-05 0.365D-05-0.876D-04 0.122D-03 0.121D-02
 Coeff:     -0.531D-02 0.991D-02 0.783D-01-0.434D+00 0.135D+01
 Gap=     0.429 Goal=   None    Shift=    0.000
 Gap=     0.568 Goal=   None    Shift=    0.000
 RMSDP=1.18D-08 MaxDP=3.57D-07 DE=-1.66D-11 OVMax= 7.39D-07

 Cycle  12  Pass 1  IDiag  1:
 RMSU=  1.98D-09    CP:  9.51D-01  2.50D+00  1.46D+00  1.74D+00  1.83D+00
                    CP:  1.81D+00  1.72D+00  1.64D+00  2.01D+00  1.87D+00
                    CP:  1.44D+00
 FoFJK:  IHMeth= 1 ICntrl=     0 DoSepK=T KAlg= 1 I1Cent= 0 FoldK=F
 E= -40.8728324248282     Delta-E=        0.000000000000 Rises=F Damp=F
 DIIS: error= 1.30D-08 at cycle  12 NSaved=  12.
 NSaved=12 IEnMin=11 EnMin= -40.8728324248285     IErMin=12 ErrMin= 1.30D-08
 ErrMax= 1.30D-08 EMaxC= 1.00D-01 BMatC= 1.64D-14 BMatP= 6.78D-13
 IDIUse=1 WtCom= 1.00D+00 WtEn= 0.00D+00
 Coeff-Com:  0.203D-07-0.960D-06-0.610D-06 0.317D-04-0.114D-03-0.145D-03
 Coeff-Com:  0.196D-02-0.825D-02 0.904D-02 0.493D-01-0.347D+00 0.130D+01
 Coeff:      0.203D-07-0.960D-06-0.610D-06 0.317D-04-0.114D-03-0.145D-03
 Coeff:      0.196D-02-0.825D-02 0.904D-02 0.493D-01-0.347D+00 0.130D+01
 Gap=     0.429 Goal=   None    Shift=    0.000
 Gap=     0.568 Goal=   None    Shift=    0.000
 RMSDP=1.72D-09 MaxDP=4.64D-08 DE= 3.77D-13 OVMax= 9.23D-08

 SCF Done:  E(ULC-B+HF-LYP) =  -40.8728324248     A.U. after   12 cycles
             Convg  =    0.1716D-08             -V/T =  2.0043
 <Sx>= 0.0000 <Sy>= 0.0000 <Sz>= 0.5000 <S**2>= 0.7544 S= 0.5022
 <L.S>= 0.000000000000E+00
 KE= 4.069666110954D+01 PE=-1.223362652424D+02 EE= 2.662970218474D+01
 Annihilation of the first spin contaminant:
 S**2 before annihilation     0.7544,   after     0.7500
 Leave Link  502 at Wed Nov  3 01:43:39 2010, MaxMem=  786432000 cpu:     279.9
 (Enter /share/apps/G09A02/g09/l601.exe)
 Copying SCF densities to generalized density rwf, IOpCl= 1 IROHF=0.

 **********************************************************************

            Population analysis using the SCF density.

 **********************************************************************

 Alpha  occ. eigenvalues --  -10.14698  -0.85775  -0.56797  -0.56014  -0.56014
 Alpha  occ. eigenvalues --   -0.35951
 Alpha virt. eigenvalues --    0.06957   0.09065   0.09066   0.11614   0.18960
 Alpha virt. eigenvalues --    0.23240   0.23240   0.25067   0.37216   0.37216
 Alpha virt. eigenvalues --    0.40204   0.40204   0.40415   0.49064   0.59301
 Alpha virt. eigenvalues --    0.63384   0.63384   0.67787   0.67788   0.69024
 Alpha virt. eigenvalues --    0.77067   0.82242   0.84787   0.84787   0.94665
 Alpha virt. eigenvalues --    1.04899   1.04899   1.14241   1.16216   1.16216
 Alpha virt. eigenvalues --    1.27821   1.27821   1.40095   1.48681   1.48681
 Alpha virt. eigenvalues --    1.52065   1.61865   1.78740   1.78740   2.16178
 Alpha virt. eigenvalues --    2.16179   2.18607   2.51586   2.54667   2.75015
 Alpha virt. eigenvalues --    2.80083   2.80084   2.92765   3.05512   3.13554
 Alpha virt. eigenvalues --    3.13554   3.18304   3.22001   3.22001   3.62873
 Alpha virt. eigenvalues --    3.62873   3.73506   3.73506   4.01485   4.08322
 Alpha virt. eigenvalues --    4.27577   4.27577   4.35524   4.35524   4.44122
 Alpha virt. eigenvalues --    4.44122   4.56321   4.95972   5.37736   5.73945
 Alpha virt. eigenvalues --    5.73945   5.84667   7.15184   7.15184   7.37411
 Alpha virt. eigenvalues --    7.74068   7.74068  24.22812
  Beta  occ. eigenvalues --  -10.13271  -0.81249  -0.55348  -0.54960  -0.54960
  Beta virt. eigenvalues --    0.01803   0.07272   0.08968   0.08968   0.12189
  Beta virt. eigenvalues --    0.21070   0.23502   0.23502   0.26242   0.38319
  Beta virt. eigenvalues --    0.38319   0.40219   0.40219   0.41645   0.50334
  Beta virt. eigenvalues --    0.61089   0.63940   0.63940   0.68440   0.68440
  Beta virt. eigenvalues --    0.70055   0.78427   0.84087   0.85033   0.85033
  Beta virt. eigenvalues --    0.94626   1.05514   1.05515   1.14911   1.16273
  Beta virt. eigenvalues --    1.16273   1.27846   1.27846   1.42518   1.49262
  Beta virt. eigenvalues --    1.49262   1.52652   1.62821   1.83507   1.83507
  Beta virt. eigenvalues --    2.17209   2.17209   2.22333   2.52305   2.54622
  Beta virt. eigenvalues --    2.75633   2.81617   2.81617   2.97814   3.05914
  Beta virt. eigenvalues --    3.16613   3.16613   3.22697   3.24961   3.24961
  Beta virt. eigenvalues --    3.63513   3.63513   3.74402   3.74402   4.01936
  Beta virt. eigenvalues --    4.08996   4.27220   4.27221   4.36231   4.36231
  Beta virt. eigenvalues --    4.44467   4.44467   4.57208   4.96141   5.38668
  Beta virt. eigenvalues --    5.74547   5.74547   5.85369   7.21492   7.21493
  Beta virt. eigenvalues --    7.45339   7.75704   7.75704  24.24685
          Condensed to atoms (all electrons):
              1          2          3          4          5          6
     1  C    5.420638  -0.017015   0.403580   0.403580   0.403580  -0.026963
     2  H   -0.017015   0.568642  -0.001794  -0.001794  -0.001794   0.428615
     3  H    0.403580  -0.001794   0.437039  -0.018943  -0.018943  -0.000626
     4  H    0.403580  -0.001794  -0.018943   0.437035  -0.018942  -0.000626
     5  H    0.403580  -0.001794  -0.018943  -0.018942   0.437035  -0.000626
     6  H   -0.026963   0.428615  -0.000626  -0.000626  -0.000626   0.637032
 Mulliken atomic charges:
              1
     1  C   -0.587400
     2  H    0.025140
     3  H    0.199687
     4  H    0.199689
     5  H    0.199689
     6  H   -0.036806
 Sum of Mulliken atomic charges =   0.00000
 Mulliken charges with hydrogens summed into heavy atoms:
              1
     1  C    0.000000
 Sum of Mulliken charges with hydrogens summed into heavy atoms =   0.00000
          Atomic-Atomic Spin Densities.
              1          2          3          4          5          6
     1  C    1.068291  -0.014604   0.004594   0.004594   0.004594  -0.026975
     2  H   -0.014604  -0.038125   0.000112   0.000112   0.000112   0.012712
     3  H    0.004594   0.000112  -0.033143   0.002690   0.002690  -0.000175
     4  H    0.004594   0.000112   0.002690  -0.033144   0.002690  -0.000175
     5  H    0.004594   0.000112   0.002690   0.002690  -0.033144  -0.000175
     6  H   -0.026975   0.012712  -0.000175  -0.000175  -0.000175   0.083672
 Mulliken atomic spin densities:
              1
     1  C    1.040494
     2  H   -0.039680
     3  H   -0.023233
     4  H   -0.023233
     5  H   -0.023233
     6  H    0.068885
 Sum of Mulliken atomic spin densities =   1.00000
 Electronic spatial extent (au):  <R**2>=             80.8402
 Charge=              0.0000 electrons
 Dipole moment (field-independent basis, Debye):
    X=              0.0000    Y=              0.0000    Z=             -0.1975  Tot=              0.1975
 Quadrupole moment (field-independent basis, Debye-Ang):
   XX=             -9.4042   YY=             -9.4042   ZZ=            -11.4142
   XY=              0.0000   XZ=              0.0000   YZ=              0.0000
 Traceless Quadrupole moment (field-independent basis, Debye-Ang):
   XX=              0.6700   YY=              0.6700   ZZ=             -1.3401
   XY=              0.0000   XZ=              0.0000   YZ=              0.0000
 Octapole moment (field-independent basis, Debye-Ang**2):
  XXX=              0.9873  YYY=              0.0000  ZZZ=            -14.2795  XYY=             -0.9873
  XXY=              0.0000  XXZ=             -5.4127  XZZ=              0.0000  YZZ=              0.0000
  YYZ=             -5.4127  XYZ=              0.0000
 Hexadecapole moment (field-independent basis, Debye-Ang**3):
 XXXX=            -17.4238 YYYY=            -17.4238 ZZZZ=            -85.0033 XXXY=              0.0000
 XXXZ=             -0.0548 YYYX=              0.0000 YYYZ=              0.0000 ZZZX=              0.0000
 ZZZY=              0.0000 XXYY=             -5.8079 XXZZ=            -19.7458 YYZZ=            -19.7458
 XXYZ=              0.0000 YYXZ=              0.0548 ZZXY=              0.0000
 N-N= 1.413706952326D+01 E-N=-1.803415823494D+02  KE= 6.042119595005D+01
                          Isotropic Fermi Contact Couplings
        Atom                 a.u.       MegaHertz       Gauss      10(-4) cm-1
     1  C(13)              0.03357      37.74278      13.46756      12.58963
     2  H(1)              -0.00736     -32.89754     -11.73866     -10.97344
     3  H(1)              -0.01307     -58.42323     -20.84686     -19.48789
     4  H(1)              -0.01307     -58.42357     -20.84698     -19.48801
     5  H(1)              -0.01307     -58.42357     -20.84698     -19.48801
     6  H(1)               0.02531     113.12864      40.36711      37.73565
 --------------------------------------------------------
       Center         ----  Spin Dipole Couplings  ----
                      3XX-RR        3YY-RR        3ZZ-RR
 --------------------------------------------------------
     1   Atom       -0.593861     -0.593862      1.187722
     2   Atom       -0.032732     -0.032732      0.065464
     3   Atom        0.074704     -0.074809      0.000105
     4   Atom       -0.037431      0.037326      0.000105
     5   Atom       -0.037431      0.037326      0.000105
     6   Atom       -0.004902     -0.004902      0.009804
 --------------------------------------------------------
                        XY            XZ            YZ
 --------------------------------------------------------
     1   Atom        0.000000     -0.000001      0.000000
     2   Atom        0.000000      0.000000      0.000000
     3   Atom        0.000000     -0.003738      0.000000
     4   Atom        0.064741      0.001869      0.003237
     5   Atom       -0.064741      0.001869     -0.003237
     6   Atom        0.000000      0.000000      0.000000
 --------------------------------------------------------


 ---------------------------------------------------------------------------------
              Anisotropic Spin Dipole Couplings in Principal Axis System
 ---------------------------------------------------------------------------------

       Atom             a.u.   MegaHertz   Gauss  10(-4) cm-1        Axes

              Baa    -0.5939   -79.691   -28.436   -26.582  0.0000  1.0000  0.0000
     1 C(13)  Bbb    -0.5939   -79.690   -28.436   -26.582  1.0000  0.0000  0.0000
              Bcc     1.1877   159.381    56.871    53.164  0.0000  0.0000  1.0000
 
              Baa    -0.0327   -17.464    -6.232    -5.825  0.0000  1.0000  0.0000
     2 H(1)   Bbb    -0.0327   -17.464    -6.232    -5.825  1.0000  0.0000  0.0000
              Bcc     0.0655    34.929    12.463    11.651  0.0000  0.0000  1.0000
 
              Baa    -0.0748   -39.915   -14.243   -13.314  0.0000  1.0000  0.0000
     3 H(1)   Bbb    -0.0001    -0.044    -0.016    -0.015  0.0499  0.0000  0.9988
              Bcc     0.0749    39.958    14.258    13.329  0.9988  0.0000 -0.0499
 
              Baa    -0.0748   -39.915   -14.243   -13.314  0.8660 -0.5000  0.0000
     4 H(1)   Bbb    -0.0001    -0.044    -0.016    -0.015 -0.0250 -0.0432  0.9988
              Bcc     0.0749    39.958    14.258    13.329  0.4994  0.8649  0.0499
 
              Baa    -0.0748   -39.915   -14.243   -13.314  0.8660  0.5000  0.0000
     5 H(1)   Bbb    -0.0001    -0.044    -0.016    -0.015 -0.0250  0.0432  0.9988
              Bcc     0.0749    39.958    14.258    13.329 -0.4994  0.8649 -0.0499
 
              Baa    -0.0049    -2.615    -0.933    -0.872  0.0000  1.0000  0.0000
     6 H(1)   Bbb    -0.0049    -2.615    -0.933    -0.872  1.0000  0.0000  0.0000
              Bcc     0.0098     5.231     1.866     1.745  0.0000  0.0000  1.0000
 

 ---------------------------------------------------------------------------------

 No NMR shielding tensors so no spin-rotation constants.
 Leave Link  601 at Wed Nov  3 01:43:40 2010, MaxMem=  786432000 cpu:       3.8
 (Enter /share/apps/G09A02/g09/l9999.exe)
 1\1\GINC-COMPUTE-0-7\SP\ULC-BLYP\6-311+G(3df,2p)\C1H5(2)\WENXINZY\03-N
 ov-2010\0\\#p lc-blyp/6-311+g(3df,2p) nosymm scf=tight\\14 H2+CH3\\0,2
 \C\H,1,2.1316763\H,1,1.0793534,2,91.8748237\H,1,1.0793534,2,91.8748237
 ,3,120.,0\H,1,1.0793534,2,91.8748237,3,-120.,0\H,2,0.7503982,1,180.,3,
 0.,0\\Version=EM64L-G09RevA.02\HF=-40.8728324\S2=0.754424\S2-1=0.\S2A=
 0.750013\RMSD=1.716e-09\Dipole=-0.0000011,0.,-0.0776929\Quadrupole=0.4
 981478,0.4981494,-0.9962971,0.,-0.0000016,0.\PG=C03V [C3(H1H1C1),3SGV(
 H1)]\\@


 TRUST EVERYONE, BUT CUT THE CARDS.
 Job cpu time:  0 days  0 hours  4 minutes 54.2 seconds.
 File lengths (MBytes):  RWF=      9 Int=      0 D2E=      0 Chk=      1 Scr=      1
 Normal termination of Gaussian 09 at Wed Nov  3 01:43:40 2010.
