 Entering Gaussian System, Link 0=/share/apps/G09A02/g09/g09
 Input=./.script12553/Job_H2_CH3_2.com
 Output=./.script12553/Job_H2_CH3_2.log
 Initial command:
 /share/apps/G09A02/g09/l1.exe /state/partition1/wenxinzy/scratch/Gau-17756.inp -scrdir=/state/partition1/wenxinzy/scratch/
 Default is to use a total of   8 processors:
                                8 via shared-memory
                                1 via Linda
 Entering Link 1 = /share/apps/G09A02/g09/l1.exe PID=     17757.
  
 Copyright (c) 1988,1990,1992,1993,1995,1998,2003,2009, Gaussian, Inc.
                  All Rights Reserved.
  
 This is part of the Gaussian(R) 09 program.  It is based on
 the Gaussian(R) 03 system (copyright 2003, Gaussian, Inc.),
 the Gaussian(R) 98 system (copyright 1998, Gaussian, Inc.),
 the Gaussian(R) 94 system (copyright 1995, Gaussian, Inc.),
 the Gaussian 92(TM) system (copyright 1992, Gaussian, Inc.),
 the Gaussian 90(TM) system (copyright 1990, Gaussian, Inc.),
 the Gaussian 88(TM) system (copyright 1988, Gaussian, Inc.),
 the Gaussian 86(TM) system (copyright 1986, Carnegie Mellon
 University), and the Gaussian 82(TM) system (copyright 1983,
 Carnegie Mellon University). Gaussian is a federally registered
 trademark of Gaussian, Inc.
  
 This software contains proprietary and confidential information,
 including trade secrets, belonging to Gaussian, Inc.
  
 This software is provided under written license and may be
 used, copied, transmitted, or stored only in accord with that
 written license.
  
 The following legend is applicable only to US Government
 contracts under FAR:
  
                    RESTRICTED RIGHTS LEGEND
  
 Use, reproduction and disclosure by the US Government is
 subject to restrictions as set forth in subparagraphs (a)
 and (c) of the Commercial Computer Software - Restricted
 Rights clause in FAR 52.227-19.
  
 Gaussian, Inc.
 340 Quinnipiac St., Bldg. 40, Wallingford CT 06492
  
  
 ---------------------------------------------------------------
 Warning -- This program may not be used in any manner that
 competes with the business of Gaussian, Inc. or will provide
 assistance to any competitor of Gaussian, Inc.  The licensee
 of this program is prohibited from giving any competitor of
 Gaussian, Inc. access to this program.  By using this program,
 the user acknowledges that Gaussian, Inc. is engaged in the
 business of creating and licensing software in the field of
 computational chemistry and represents and warrants to the
 licensee that it is not a competitor of Gaussian, Inc. and that
 it will not use this program in any manner prohibited above.
 ---------------------------------------------------------------
  

 Cite this work as:
 Gaussian 09, Revision A.02,
 M. J. Frisch, G. W. Trucks, H. B. Schlegel, G. E. Scuseria, 
 M. A. Robb, J. R. Cheeseman, G. Scalmani, V. Barone, B. Mennucci, 
 G. A. Petersson, H. Nakatsuji, M. Caricato, X. Li, H. P. Hratchian, 
 A. F. Izmaylov, J. Bloino, G. Zheng, J. L. Sonnenberg, M. Hada, 
 M. Ehara, K. Toyota, R. Fukuda, J. Hasegawa, M. Ishida, T. Nakajima, 
 Y. Honda, O. Kitao, H. Nakai, T. Vreven, J. A. Montgomery, Jr., 
 J. E. Peralta, F. Ogliaro, M. Bearpark, J. J. Heyd, E. Brothers, 
 K. N. Kudin, V. N. Staroverov, R. Kobayashi, J. Normand, 
 K. Raghavachari, A. Rendell, J. C. Burant, S. S. Iyengar, J. Tomasi, 
 M. Cossi, N. Rega, J. M. Millam, M. Klene, J. E. Knox, J. B. Cross, 
 V. Bakken, C. Adamo, J. Jaramillo, R. Gomperts, R. E. Stratmann, 
 O. Yazyev, A. J. Austin, R. Cammi, C. Pomelli, J. W. Ochterski, 
 R. L. Martin, K. Morokuma, V. G. Zakrzewski, G. A. Voth, 
 P. Salvador, J. J. Dannenberg, S. Dapprich, A. D. Daniels, 
 O. Farkas, J. B. Foresman, J. V. Ortiz, J. Cioslowski, 
 and D. J. Fox, Gaussian, Inc., Wallingford CT, 2009.
 
 ******************************************
 Gaussian 09:  EM64L-G09RevA.02 11-Jun-2009
                 3-Nov-2010 
 ******************************************
 %chk=/state/partition1/wenxinzy/scratch/H2_CH3_2.chk
 %nproc=8
 Will use up to    8 processors via shared memory.
 %mem=6000mb
 -------------------------------------------
 #p lc-blyp/6-311+g(3df,2p) nosymm scf=tight
 -------------------------------------------
 1/38=1/1;
 2/12=2,15=1,17=6,18=5,40=1/2;
 3/5=4,6=6,7=216,11=2,16=1,25=1,30=1,74=1000402/1,2,3;
 4//1;
 5/5=2,32=2,38=5/2;
 6/7=2,8=2,9=2,10=2,28=1/1;
 99/5=1,9=1/99;
 Leave Link    1 at Wed Nov  3 01:36:11 2010, MaxMem=  786432000 cpu:       0.4
 (Enter /share/apps/G09A02/g09/l101.exe)
 --------
 3 H2+CH3
 --------
 Symbolic Z-matrix:
 Charge =  0 Multiplicity = 2
 C
 H1                   C    R1
 H2                   C    R2       H1   A1
 H3                   C    R2       H1   A1       H2    120.     0
 H4                   C    R2       H1   A1       H2   -120.     0
 H5                   H1   R3       C     180.     H2    0.       0
       Variables:
  R1                    1.47413                  
  R2                    1.08377                  
  A1                  101.68319                  
  R3                    0.85074                  
 
 NAtoms=      6 NQM=      6 NQMF=      0 NMic=      0 NMicF=      0 NTot=      6.
                    Isotopes and Nuclear Properties:
 (Nuclear quadrupole moments (NQMom) in fm**2, nuclear magnetic moments (NMagM)
  in nuclear magnetons)

  Atom         1           2           3           4           5           6
 IAtWgt=          12           1           1           1           1           1
 AtmWgt=  12.0000000   1.0078250   1.0078250   1.0078250   1.0078250   1.0078250
 NucSpn=           0           1           1           1           1           1
 AtZEff=   0.0000000   0.0000000   0.0000000   0.0000000   0.0000000   0.0000000
 NQMom=    0.0000000   0.0000000   0.0000000   0.0000000   0.0000000   0.0000000
 NMagM=    0.0000000   2.7928460   2.7928460   2.7928460   2.7928460   2.7928460
 Leave Link  101 at Wed Nov  3 01:36:11 2010, MaxMem=  786432000 cpu:       1.1
 (Enter /share/apps/G09A02/g09/l202.exe)
                          Input orientation:                          
 ---------------------------------------------------------------------
 Center     Atomic      Atomic             Coordinates (Angstroms)
 Number     Number       Type             X           Y           Z
 ---------------------------------------------------------------------
      1          6           0        0.000000    0.000000    0.000000
      2          1           0        0.000000    0.000000    1.474134
      3          1           0        1.061317    0.000000   -0.219463
      4          1           0       -0.530659   -0.919128   -0.219463
      5          1           0       -0.530659    0.919128   -0.219463
      6          1           0        0.000000    0.000000    2.324876
 ---------------------------------------------------------------------
                    Distance matrix (angstroms):
                    1          2          3          4          5
     1  C    0.000000
     2  H    1.474134   0.000000
     3  H    1.083771   1.998666   0.000000
     4  H    1.083771   1.998666   1.838256   0.000000
     5  H    1.083771   1.998666   1.838256   1.838256   0.000000
     6  H    2.324876   0.850742   2.756820   2.756820   2.756820
                    6
     6  H    0.000000
 Symmetry turned off by external request.
 Stoichiometry    CH5(2)
 Framework group  C3V[C3(HHC),3SGV(H)]
 Deg. of freedom     4
 Full point group                 C3V     NOp   6
 Rotational constants (GHZ):    148.3953446     56.7976536     56.7976536
 Leave Link  202 at Wed Nov  3 01:36:11 2010, MaxMem=  786432000 cpu:       0.0
 (Enter /share/apps/G09A02/g09/l301.exe)
 Standard basis: 6-311+G(3df,2p) (5D, 7F)
 Ernie: Thresh=  0.10000D-02 Tol=  0.10000D-05 Strict=F.
 Integral buffers will be    131072 words long.
 Raffenetti 2 integral format.
 Two-electron integral symmetry is turned off.
    84 basis functions,   113 primitive gaussians,    90 cartesian basis functions
     6 alpha electrons        5 beta electrons
       nuclear repulsion energy        15.1642548777 Hartrees.
 IExCor=10402 DFT=T Ex=LC-B+HF Corr=LYP ExCW=0 ScaHFX=  1.000000
 ScaDFX=  1.000000  1.000000  1.000000  1.000000 ScalE2=  1.000000  1.000000
 IRadAn=      0 IRanWt=     -1 IRanGd=            0 ICorTp=0
  HFx wShort=  0.000000 wLong=  0.470000 cFull=  0.000000 cShort=  0.000000 cLong=  1.000000
  DFx wShort=  0.000000 wLong=  0.470000 cFull=  0.000000 cShort=  0.000000 cLong=  1.000000
 NAtoms=    6 NActive=    6 NUniq=    6 SFac= 7.50D-01 NAtFMM=   80 NAOKFM=F Big=F
 Leave Link  301 at Wed Nov  3 01:36:11 2010, MaxMem=  786432000 cpu:       0.7
 (Enter /share/apps/G09A02/g09/l302.exe)
 NPDir=0 NMtPBC=     1 NCelOv=     1 NCel=       1 NClECP=     1 NCelD=      1
         NCelK=      1 NCelE2=     1 NClLst=     1 CellRange=     0.0.
 One-electron integrals computed using PRISM.
 NBasis=    84 RedAO= T  NBF=    84
 NBsUse=    84 1.00D-06 NBFU=    84
 Precomputing XC quadrature grid using
 IXCGrd= 2 IRadAn=           0 IRanWt=          -1 IRanGd=           0 AccXCQ= 1.00D-10.
 NRdTot=     383 NPtTot=       48740 NUsed=       51512 NTot=       51544
 NSgBfM=    90    90    90    90    90 NAtAll=     6     6.
 Leave Link  302 at Wed Nov  3 01:36:11 2010, MaxMem=  786432000 cpu:       2.5
 (Enter /share/apps/G09A02/g09/l303.exe)
 DipDrv:  MaxL=1.
 Leave Link  303 at Wed Nov  3 01:36:11 2010, MaxMem=  786432000 cpu:       0.4
 (Enter /share/apps/G09A02/g09/l401.exe)
 Harris functional with IExCor=10402 diagonalized for initial guess.
 ExpMin= 4.38D-02 ExpMax= 4.56D+03 ExpMxC= 6.82D+02 IAcc=2 IRadAn=         0 AccDes= 0.00D+00
 HarFok:  IExCor=10402 AccDes= 0.00D+00 IRadAn=         0 IDoV= 1
 ScaDFX=  1.000000  1.000000  1.000000  1.000000
 FoFCou: FMM=F IPFlag=           0 FMFlag=      100000 FMFlg1=           0
         NFxFlg=           0 DoJE=T BraDBF=F KetDBF=T FulRan=T
         Omega=  0.000000  0.000000  1.000000  0.000000  0.000000 ICntrl=     500 IOpCl=  0
         NMat0=    1 NMatS0=    1 NMatT0=    0 NMatD0=    1 NMtDS0=    0 NMtDT0=    0
         I1Cent=           4 NGrid=           0.
 Symmetry not used in FoFCou.
 Harris En= -38.5300939571621    
 Initial guess <Sx>= 0.0000 <Sy>= 0.0000 <Sz>= 0.5000 <S**2>= 0.7500 S= 0.5000
 Leave Link  401 at Wed Nov  3 01:36:12 2010, MaxMem=  786432000 cpu:       3.7
 (Enter /share/apps/G09A02/g09/l502.exe)
 UHF open shell SCF:
 Requested convergence on RMS density matrix=1.00D-08 within 128 cycles.
 Requested convergence on MAX density matrix=1.00D-06.
 Requested convergence on             energy=1.00D-06.
 No special actions if energy rises.
 Using DIIS extrapolation, IDIIS=  1040.
 Two-electron integral symmetry not used.
        51445 words used for storage of precomputed grid.
 IEnd=       95163 IEndB=       95163 NGot=   786432000 MDV=   786361668
 LenX=   786361668 LenY=   786353127
 Fock matrices will be formed incrementally for  20 cycles.

 Cycle   1  Pass 1  IDiag  1:
 FoFJK:  IHMeth= 1 ICntrl=     0 DoSepK=T KAlg= 1 I1Cent= 0 FoldK=F
 FoFCou: FMM=F IPFlag=           0 FMFlag=      100000 FMFlg1=           0
         NFxFlg=           0 DoJE=T BraDBF=F KetDBF=F FulRan=T
         Omega=  0.000000  0.000000  1.000000  0.000000  0.000000 ICntrl=     500 IOpCl=  0
         NMat0=    1 NMatS0=    1 NMatT0=    0 NMatD0=    1 NMtDS0=    0 NMtDT0=    0
         I1Cent=           0 NGrid=           0.
 Symmetry not used in FoFCou.
 E= -40.8246004486991    
 DIIS: error= 2.40D-02 at cycle   1 NSaved=   1.
 NSaved= 1 IEnMin= 1 EnMin= -40.8246004486991     IErMin= 1 ErrMin= 2.40D-02
 ErrMax= 2.40D-02 EMaxC= 1.00D-01 BMatC= 1.13D-01 BMatP= 1.13D-01
 IDIUse=3 WtCom= 7.60D-01 WtEn= 2.40D-01
 Coeff-Com:  0.100D+01
 Coeff-En:   0.100D+01
 Coeff:      0.100D+01
 Gap=     0.364 Goal=   None    Shift=    0.000
 Gap=     0.558 Goal=   None    Shift=    0.000
 GapD=    0.364 DampG=1.000 DampE=0.500 DampFc=0.5000 IDamp=-1.
 Damping current iteration by 5.00D-01
 RMSDP=3.59D-03 MaxDP=1.15D-01              OVMax= 1.11D-01

 Cycle   2  Pass 1  IDiag  1:
 RMSU=  1.43D-03    CP:  9.33D-01
 FoFJK:  IHMeth= 1 ICntrl=     0 DoSepK=T KAlg= 1 I1Cent= 0 FoldK=F
 E= -40.8419645439232     Delta-E=       -0.017364095224 Rises=F Damp=T
 DIIS: error= 8.39D-03 at cycle   2 NSaved=   2.
 NSaved= 2 IEnMin= 2 EnMin= -40.8419645439232     IErMin= 2 ErrMin= 8.39D-03
 ErrMax= 8.39D-03 EMaxC= 1.00D-01 BMatC= 1.17D-02 BMatP= 1.13D-01
 IDIUse=3 WtCom= 9.16D-01 WtEn= 8.39D-02
 Coeff-Com: -0.244D+00 0.124D+01
 Coeff-En:   0.000D+00 0.100D+01
 Coeff:     -0.224D+00 0.122D+01
 Gap=     0.401 Goal=   None    Shift=    0.000
 Gap=     0.554 Goal=   None    Shift=    0.000
 RMSDP=2.95D-03 MaxDP=1.02D-01 DE=-1.74D-02 OVMax= 5.34D-02

 Cycle   3  Pass 1  IDiag  1:
 RMSU=  1.29D-03    CP:  8.30D-01  2.39D+00
 FoFJK:  IHMeth= 1 ICntrl=     0 DoSepK=T KAlg= 1 I1Cent= 0 FoldK=F
 E= -40.8598834044288     Delta-E=       -0.017918860506 Rises=F Damp=F
 DIIS: error= 3.03D-03 at cycle   3 NSaved=   3.
 NSaved= 3 IEnMin= 3 EnMin= -40.8598834044288     IErMin= 3 ErrMin= 3.03D-03
 ErrMax= 3.03D-03 EMaxC= 1.00D-01 BMatC= 1.13D-03 BMatP= 1.17D-02
 IDIUse=3 WtCom= 9.70D-01 WtEn= 3.03D-02
 Coeff-Com:  0.116D-02-0.232D+00 0.123D+01
 Coeff-En:   0.000D+00 0.000D+00 0.100D+01
 Coeff:      0.112D-02-0.225D+00 0.122D+01
 Gap=     0.401 Goal=   None    Shift=    0.000
 Gap=     0.542 Goal=   None    Shift=    0.000
 RMSDP=9.89D-04 MaxDP=3.08D-02 DE=-1.79D-02 OVMax= 2.69D-02

 Cycle   4  Pass 1  IDiag  1:
 RMSU=  3.01D-04    CP:  7.96D-01  2.78D+00  1.38D+00
 FoFJK:  IHMeth= 1 ICntrl=     0 DoSepK=T KAlg= 1 I1Cent= 0 FoldK=F
 E= -40.8608467902728     Delta-E=       -0.000963385844 Rises=F Damp=F
 DIIS: error= 1.00D-03 at cycle   4 NSaved=   4.
 NSaved= 4 IEnMin= 4 EnMin= -40.8608467902728     IErMin= 4 ErrMin= 1.00D-03
 ErrMax= 1.00D-03 EMaxC= 1.00D-01 BMatC= 1.15D-04 BMatP= 1.13D-03
 IDIUse=3 WtCom= 9.90D-01 WtEn= 1.00D-02
 Coeff-Com:  0.756D-02-0.379D-01-0.247D+00 0.128D+01
 Coeff-En:   0.000D+00 0.000D+00 0.000D+00 0.100D+01
 Coeff:      0.748D-02-0.376D-01-0.245D+00 0.127D+01
 Gap=     0.404 Goal=   None    Shift=    0.000
 Gap=     0.546 Goal=   None    Shift=    0.000
 RMSDP=3.12D-04 MaxDP=9.58D-03 DE=-9.63D-04 OVMax= 1.06D-02

 Cycle   5  Pass 1  IDiag  1:
 RMSU=  3.60D-05    CP:  7.86D-01  2.88D+00  1.51D+00  1.43D+00
 FoFJK:  IHMeth= 1 ICntrl=     0 DoSepK=T KAlg= 1 I1Cent= 0 FoldK=F
 E= -40.8609598896767     Delta-E=       -0.000113099404 Rises=F Damp=F
 DIIS: error= 3.06D-04 at cycle   5 NSaved=   5.
 NSaved= 5 IEnMin= 5 EnMin= -40.8609598896767     IErMin= 5 ErrMin= 3.06D-04
 ErrMax= 3.06D-04 EMaxC= 1.00D-01 BMatC= 8.34D-06 BMatP= 1.15D-04
 IDIUse=3 WtCom= 9.97D-01 WtEn= 3.06D-03
 Coeff-Com: -0.141D-02 0.210D-01-0.325D-01-0.209D+00 0.122D+01
 Coeff-En:   0.000D+00 0.000D+00 0.000D+00 0.000D+00 0.100D+01
 Coeff:     -0.141D-02 0.209D-01-0.324D-01-0.208D+00 0.122D+01
 Gap=     0.404 Goal=   None    Shift=    0.000
 Gap=     0.546 Goal=   None    Shift=    0.000
 RMSDP=3.78D-05 MaxDP=8.33D-04 DE=-1.13D-04 OVMax= 2.21D-03

 Cycle   6  Pass 1  IDiag  1:
 RMSU=  1.29D-05    CP:  7.85D-01  2.88D+00  1.52D+00  1.47D+00  1.57D+00
 FoFJK:  IHMeth= 1 ICntrl=     0 DoSepK=T KAlg= 1 I1Cent= 0 FoldK=F
 E= -40.8609678849278     Delta-E=       -0.000007995251 Rises=F Damp=F
 DIIS: error= 1.06D-04 at cycle   6 NSaved=   6.
 NSaved= 6 IEnMin= 6 EnMin= -40.8609678849278     IErMin= 6 ErrMin= 1.06D-04
 ErrMax= 1.06D-04 EMaxC= 1.00D-01 BMatC= 1.07D-06 BMatP= 8.34D-06
 IDIUse=3 WtCom= 9.99D-01 WtEn= 1.06D-03
 Coeff-Com: -0.370D-03 0.138D-02 0.275D-01-0.971D-01-0.185D+00 0.125D+01
 Coeff-En:   0.000D+00 0.000D+00 0.000D+00 0.000D+00 0.000D+00 0.100D+01
 Coeff:     -0.370D-03 0.138D-02 0.274D-01-0.970D-01-0.185D+00 0.125D+01
 Gap=     0.404 Goal=   None    Shift=    0.000
 Gap=     0.546 Goal=   None    Shift=    0.000
 RMSDP=1.50D-05 MaxDP=2.83D-04 DE=-8.00D-06 OVMax= 7.65D-04

 Cycle   7  Pass 1  IDiag  1:
 RMSU=  4.65D-06    CP:  7.85D-01  2.88D+00  1.52D+00  1.48D+00  1.81D+00
                    CP:  1.48D+00
 FoFJK:  IHMeth= 1 ICntrl=     0 DoSepK=T KAlg= 1 I1Cent= 0 FoldK=F
 E= -40.8609689960566     Delta-E=       -0.000001111129 Rises=F Damp=F
 DIIS: error= 3.82D-05 at cycle   7 NSaved=   7.
 NSaved= 7 IEnMin= 7 EnMin= -40.8609689960566     IErMin= 7 ErrMin= 3.82D-05
 ErrMax= 3.82D-05 EMaxC= 1.00D-01 BMatC= 1.20D-07 BMatP= 1.07D-06
 IDIUse=1 WtCom= 1.00D+00 WtEn= 0.00D+00
 Coeff-Com:  0.605D-04-0.221D-02-0.837D-02 0.607D-01-0.360D-01-0.570D+00
 Coeff-Com:  0.156D+01
 Coeff:      0.605D-04-0.221D-02-0.837D-02 0.607D-01-0.360D-01-0.570D+00
 Coeff:      0.156D+01
 Gap=     0.404 Goal=   None    Shift=    0.000
 Gap=     0.546 Goal=   None    Shift=    0.000
 RMSDP=6.08D-06 MaxDP=1.10D-04 DE=-1.11D-06 OVMax= 3.11D-04

 Cycle   8  Pass 1  IDiag  1:
 RMSU=  8.82D-07    CP:  7.85D-01  2.88D+00  1.52D+00  1.48D+00  1.87D+00
                    CP:  1.68D+00  1.77D+00
 FoFJK:  IHMeth= 1 ICntrl=     0 DoSepK=T KAlg= 1 I1Cent= 0 FoldK=F
 E= -40.8609691360159     Delta-E=       -0.000000139959 Rises=F Damp=F
 DIIS: error= 8.65D-06 at cycle   8 NSaved=   8.
 NSaved= 8 IEnMin= 8 EnMin= -40.8609691360159     IErMin= 8 ErrMin= 8.65D-06
 ErrMax= 8.65D-06 EMaxC= 1.00D-01 BMatC= 5.74D-09 BMatP= 1.20D-07
 IDIUse=1 WtCom= 1.00D+00 WtEn= 0.00D+00
 Coeff-Com:  0.936D-04 0.469D-03 0.158D-02-0.146D-01 0.210D-01 0.128D+00
 Coeff-Com: -0.548D+00 0.141D+01
 Coeff:      0.936D-04 0.469D-03 0.158D-02-0.146D-01 0.210D-01 0.128D+00
 Coeff:     -0.548D+00 0.141D+01
 Gap=     0.404 Goal=   None    Shift=    0.000
 Gap=     0.546 Goal=   None    Shift=    0.000
 RMSDP=1.39D-06 MaxDP=3.82D-05 DE=-1.40D-07 OVMax= 8.29D-05

 Cycle   9  Pass 1  IDiag  1:
 RMSU=  3.68D-07    CP:  7.85D-01  2.88D+00  1.52D+00  1.48D+00  1.87D+00
                    CP:  1.70D+00  1.90D+00  1.56D+00
 FoFJK:  IHMeth= 1 ICntrl=     0 DoSepK=T KAlg= 1 I1Cent= 0 FoldK=F
 E= -40.8609691426306     Delta-E=       -0.000000006615 Rises=F Damp=F
 DIIS: error= 2.27D-06 at cycle   9 NSaved=   9.
 NSaved= 9 IEnMin= 9 EnMin= -40.8609691426306     IErMin= 9 ErrMin= 2.27D-06
 ErrMax= 2.27D-06 EMaxC= 1.00D-01 BMatC= 4.78D-10 BMatP= 5.74D-09
 IDIUse=1 WtCom= 1.00D+00 WtEn= 0.00D+00
 Coeff-Com: -0.526D-04-0.120D-03-0.680D-03 0.526D-02-0.871D-02-0.398D-01
 Coeff-Com:  0.203D+00-0.744D+00 0.159D+01
 Coeff:     -0.526D-04-0.120D-03-0.680D-03 0.526D-02-0.871D-02-0.398D-01
 Coeff:      0.203D+00-0.744D+00 0.159D+01
 Gap=     0.404 Goal=   None    Shift=    0.000
 Gap=     0.546 Goal=   None    Shift=    0.000
 RMSDP=5.10D-07 MaxDP=1.55D-05 DE=-6.61D-09 OVMax= 3.11D-05

 Cycle  10  Pass 1  IDiag  1:
 RMSU=  1.20D-07    CP:  7.85D-01  2.88D+00  1.52D+00  1.48D+00  1.87D+00
                    CP:  1.69D+00  1.93D+00  1.70D+00  1.60D+00
 FoFJK:  IHMeth= 1 ICntrl=     0 DoSepK=T KAlg= 1 I1Cent= 0 FoldK=F
 E= -40.8609691433269     Delta-E=       -0.000000000696 Rises=F Damp=F
 DIIS: error= 7.44D-07 at cycle  10 NSaved=  10.
 NSaved=10 IEnMin=10 EnMin= -40.8609691433269     IErMin=10 ErrMin= 7.44D-07
 ErrMax= 7.44D-07 EMaxC= 1.00D-01 BMatC= 3.69D-11 BMatP= 4.78D-10
 IDIUse=1 WtCom= 1.00D+00 WtEn= 0.00D+00
 Coeff-Com:  0.120D-04 0.195D-04 0.171D-03-0.953D-03 0.171D-02 0.497D-02
 Coeff-Com: -0.295D-01 0.137D+00-0.523D+00 0.141D+01
 Coeff:      0.120D-04 0.195D-04 0.171D-03-0.953D-03 0.171D-02 0.497D-02
 Coeff:     -0.295D-01 0.137D+00-0.523D+00 0.141D+01
 Gap=     0.404 Goal=   None    Shift=    0.000
 Gap=     0.546 Goal=   None    Shift=    0.000
 RMSDP=1.40D-07 MaxDP=4.83D-06 DE=-6.96D-10 OVMax= 7.67D-06

 Cycle  11  Pass 1  IDiag  1:
 RMSU=  2.71D-08    CP:  7.85D-01  2.88D+00  1.52D+00  1.48D+00  1.87D+00
                    CP:  1.69D+00  1.94D+00  1.71D+00  1.74D+00  1.56D+00
 FoFJK:  IHMeth= 1 ICntrl=     0 DoSepK=T KAlg= 1 I1Cent= 0 FoldK=F
 E= -40.8609691433866     Delta-E=       -0.000000000060 Rises=F Damp=F
 DIIS: error= 2.14D-07 at cycle  11 NSaved=  11.
 NSaved=11 IEnMin=11 EnMin= -40.8609691433866     IErMin=11 ErrMin= 2.14D-07
 ErrMax= 2.14D-07 EMaxC= 1.00D-01 BMatC= 2.88D-12 BMatP= 3.69D-11
 IDIUse=1 WtCom= 1.00D+00 WtEn= 0.00D+00
 Coeff-Com:  0.449D-06 0.158D-05-0.259D-04-0.138D-04 0.109D-03 0.108D-02
 Coeff-Com: -0.683D-02 0.247D-01-0.134D-03-0.365D+00 0.135D+01
 Coeff:      0.449D-06 0.158D-05-0.259D-04-0.138D-04 0.109D-03 0.108D-02
 Coeff:     -0.683D-02 0.247D-01-0.134D-03-0.365D+00 0.135D+01
 Gap=     0.404 Goal=   None    Shift=    0.000
 Gap=     0.546 Goal=   None    Shift=    0.000
 RMSDP=4.81D-08 MaxDP=1.74D-06 DE=-5.97D-11 OVMax= 2.05D-06

 Cycle  12  Pass 1  IDiag  1:
 RMSU=  5.13D-09    CP:  7.85D-01  2.88D+00  1.52D+00  1.48D+00  1.87D+00
                    CP:  1.69D+00  1.94D+00  1.71D+00  1.76D+00  1.72D+00
                    CP:  1.54D+00
 FoFJK:  IHMeth= 1 ICntrl=     0 DoSepK=T KAlg= 1 I1Cent= 0 FoldK=F
 E= -40.8609691433899     Delta-E=       -0.000000000003 Rises=F Damp=F
 DIIS: error= 6.57D-08 at cycle  12 NSaved=  12.
 NSaved=12 IEnMin=12 EnMin= -40.8609691433899     IErMin=12 ErrMin= 6.57D-08
 ErrMax= 6.57D-08 EMaxC= 1.00D-01 BMatC= 1.57D-13 BMatP= 2.88D-12
 IDIUse=1 WtCom= 1.00D+00 WtEn= 0.00D+00
 Coeff-Com: -0.444D-06-0.493D-06 0.430D-05 0.165D-04-0.455D-04-0.437D-03
 Coeff-Com:  0.282D-02-0.126D-01 0.236D-01 0.498D-01-0.484D+00 0.142D+01
 Coeff:     -0.444D-06-0.493D-06 0.430D-05 0.165D-04-0.455D-04-0.437D-03
 Coeff:      0.282D-02-0.126D-01 0.236D-01 0.498D-01-0.484D+00 0.142D+01
 Gap=     0.404 Goal=   None    Shift=    0.000
 Gap=     0.546 Goal=   None    Shift=    0.000
 RMSDP=7.14D-09 MaxDP=1.80D-07 DE=-3.25D-12 OVMax= 4.52D-07

 SCF Done:  E(ULC-B+HF-LYP) =  -40.8609691434     A.U. after   12 cycles
             Convg  =    0.7141D-08             -V/T =  2.0045
 <Sx>= 0.0000 <Sy>= 0.0000 <Sz>= 0.5000 <S**2>= 0.7636 S= 0.5068
 <L.S>= 0.000000000000E+00
 KE= 4.067908804768D+01 PE=-1.243357635059D+02 EE= 2.763145143712D+01
 Annihilation of the first spin contaminant:
 S**2 before annihilation     0.7636,   after     0.7501
 Leave Link  502 at Wed Nov  3 01:36:47 2010, MaxMem=  786432000 cpu:     282.2
 (Enter /share/apps/G09A02/g09/l601.exe)
 Copying SCF densities to generalized density rwf, IOpCl= 1 IROHF=0.

 **********************************************************************

            Population analysis using the SCF density.

 **********************************************************************

 Alpha  occ. eigenvalues --  -10.14717  -0.87112  -0.59320  -0.55573  -0.55573
 Alpha  occ. eigenvalues --   -0.33588
 Alpha virt. eigenvalues --    0.06848   0.09064   0.09064   0.10215   0.22406
 Alpha virt. eigenvalues --    0.22406   0.22930   0.26640   0.35129   0.35130
 Alpha virt. eigenvalues --    0.40469   0.40469   0.42203   0.46763   0.62956
 Alpha virt. eigenvalues --    0.62956   0.63271   0.69869   0.72062   0.72062
 Alpha virt. eigenvalues --    0.76511   0.84400   0.84400   0.90597   0.95723
 Alpha virt. eigenvalues --    1.08943   1.08943   1.11993   1.11993   1.22892
 Alpha virt. eigenvalues --    1.28313   1.28313   1.37182   1.42437   1.42437
 Alpha virt. eigenvalues --    1.52040   1.87545   1.92149   1.92149   2.11331
 Alpha virt. eigenvalues --    2.11331   2.22180   2.54572   2.61088   2.77825
 Alpha virt. eigenvalues --    2.77825   2.97516   3.06038   3.12691   3.12794
 Alpha virt. eigenvalues --    3.12794   3.36506   3.36507   3.59752   3.68215
 Alpha virt. eigenvalues --    3.68215   3.80587   3.80587   4.00306   4.02282
 Alpha virt. eigenvalues --    4.27166   4.27166   4.33472   4.33472   4.43902
 Alpha virt. eigenvalues --    4.43902   4.52123   4.79656   5.34348   5.63257
 Alpha virt. eigenvalues --    5.76448   5.76448   7.20396   7.20396   7.71547
 Alpha virt. eigenvalues --    7.76740   7.76740  24.21369
  Beta  occ. eigenvalues --  -10.13489  -0.83723  -0.54697  -0.54697  -0.53394
  Beta virt. eigenvalues --    0.01214   0.07789   0.09016   0.09016   0.09970
  Beta virt. eigenvalues --    0.22757   0.22757   0.24264   0.28321   0.35679
  Beta virt. eigenvalues --    0.35679   0.40566   0.40566   0.43601   0.48595
  Beta virt. eigenvalues --    0.64023   0.64023   0.66977   0.70701   0.73142
  Beta virt. eigenvalues --    0.73142   0.76830   0.85296   0.85296   0.91938
  Beta virt. eigenvalues --    0.95696   1.09688   1.09688   1.12523   1.12523
  Beta virt. eigenvalues --    1.24609   1.28552   1.28552   1.38288   1.43354
  Beta virt. eigenvalues --    1.43354   1.53666   1.89480   1.95183   1.95183
  Beta virt. eigenvalues --    2.12390   2.12390   2.26112   2.56911   2.64126
  Beta virt. eigenvalues --    2.79102   2.79102   2.98366   3.06459   3.15327
  Beta virt. eigenvalues --    3.15409   3.15409   3.38505   3.38505   3.64534
  Beta virt. eigenvalues --    3.69316   3.69316   3.84682   3.84682   4.01465
  Beta virt. eigenvalues --    4.03700   4.27033   4.27033   4.34057   4.34057
  Beta virt. eigenvalues --    4.44679   4.44679   4.53741   4.79932   5.35339
  Beta virt. eigenvalues --    5.66161   5.77050   5.77050   7.25104   7.25105
  Beta virt. eigenvalues --    7.77752   7.78479   7.78479  24.22991
          Condensed to atoms (all electrons):
              1          2          3          4          5          6
     1  C    5.313934   0.131345   0.406260   0.406259   0.406259  -0.104180
     2  H    0.131345   0.539040  -0.007421  -0.007419  -0.007419   0.300528
     3  H    0.406260  -0.007421   0.448110  -0.017991  -0.017991  -0.000963
     4  H    0.406259  -0.007419  -0.017991   0.448113  -0.017990  -0.000963
     5  H    0.406259  -0.007419  -0.017991  -0.017990   0.448113  -0.000963
     6  H   -0.104180   0.300528  -0.000963  -0.000963  -0.000963   0.867992
 Mulliken atomic charges:
              1
     1  C   -0.559876
     2  H    0.051346
     3  H    0.189996
     4  H    0.189992
     5  H    0.189992
     6  H   -0.061451
 Sum of Mulliken atomic charges =   0.00000
 Mulliken charges with hydrogens summed into heavy atoms:
              1
     1  C    0.000000
 Sum of Mulliken charges with hydrogens summed into heavy atoms =   0.00000
          Atomic-Atomic Spin Densities.
              1          2          3          4          5          6
     1  C    0.847554   0.036611   0.000892   0.000893   0.000893  -0.129861
     2  H    0.036611  -0.189906   0.002248   0.002248   0.002248  -0.006113
     3  H    0.000892   0.002248  -0.020908   0.001791   0.001791   0.001255
     4  H    0.000893   0.002248   0.001791  -0.020908   0.001791   0.001255
     5  H    0.000893   0.002248   0.001791   0.001791  -0.020908   0.001255
     6  H   -0.129861  -0.006113   0.001255   0.001255   0.001255   0.566689
 Mulliken atomic spin densities:
              1
     1  C    0.756981
     2  H   -0.152665
     3  H   -0.012932
     4  H   -0.012931
     5  H   -0.012931
     6  H    0.434478
 Sum of Mulliken atomic spin densities =   1.00000
 Electronic spatial extent (au):  <R**2>=             62.7420
 Charge=              0.0000 electrons
 Dipole moment (field-independent basis, Debye):
    X=              0.0000    Y=              0.0000    Z=             -0.6521  Tot=              0.6521
 Quadrupole moment (field-independent basis, Debye-Ang):
   XX=             -9.5021   YY=             -9.5021   ZZ=            -12.0618
   XY=              0.0000   XZ=              0.0000   YZ=              0.0000
 Traceless Quadrupole moment (field-independent basis, Debye-Ang):
   XX=              0.8532   YY=              0.8532   ZZ=             -1.7065
   XY=              0.0000   XZ=              0.0000   YZ=              0.0000
 Octapole moment (field-independent basis, Debye-Ang**2):
  XXX=              0.8917  YYY=              0.0000  ZZZ=            -13.9669  XYY=             -0.8917
  XXY=              0.0000  XXZ=             -4.1994  XZZ=              0.0000  YZZ=              0.0000
  YYZ=             -4.1994  XYZ=              0.0000
 Hexadecapole moment (field-independent basis, Debye-Ang**3):
 XXXX=            -17.5283 YYYY=            -17.5283 ZZZZ=            -73.4596 XXXY=              0.0000
 XXXZ=             -0.3076 YYYX=              0.0000 YYYZ=              0.0000 ZZZX=              0.0000
 ZZZY=              0.0000 XXYY=             -5.8428 XXZZ=            -14.8269 YYZZ=            -14.8269
 XXYZ=              0.0000 YYXZ=              0.3076 ZZXY=              0.0000
 N-N= 1.516425487773D+01 E-N=-1.835711459059D+02  KE= 6.040449153439D+01
                          Isotropic Fermi Contact Couplings
        Atom                 a.u.       MegaHertz       Gauss      10(-4) cm-1
     1  C(13)              0.14760     165.93229      59.20876      55.34905
     2  H(1)              -0.04431    -198.04945     -70.66896     -66.06218
     3  H(1)              -0.00850     -37.99554     -13.55775     -12.67395
     4  H(1)              -0.00850     -37.99582     -13.55785     -12.67404
     5  H(1)              -0.00850     -37.99582     -13.55785     -12.67404
     6  H(1)               0.13732     613.81153     219.02321     204.74549
 --------------------------------------------------------
       Center         ----  Spin Dipole Couplings  ----
                      3XX-RR        3YY-RR        3ZZ-RR
 --------------------------------------------------------
     1   Atom       -0.469182     -0.469183      0.938365
     2   Atom       -0.110555     -0.110555      0.221110
     3   Atom        0.054730     -0.056788      0.002058
     4   Atom       -0.028909      0.026851      0.002058
     5   Atom       -0.028909      0.026851      0.002058
     6   Atom        0.004823      0.004823     -0.009645
 --------------------------------------------------------
                        XY            XZ            YZ
 --------------------------------------------------------
     1   Atom        0.000000      0.000000      0.000000
     2   Atom        0.000000      0.000000      0.000000
     3   Atom        0.000000     -0.018178      0.000000
     4   Atom        0.048289      0.009089      0.015743
     5   Atom       -0.048289      0.009089     -0.015743
     6   Atom        0.000000      0.000000      0.000000
 --------------------------------------------------------


 ---------------------------------------------------------------------------------
              Anisotropic Spin Dipole Couplings in Principal Axis System
 ---------------------------------------------------------------------------------

       Atom             a.u.   MegaHertz   Gauss  10(-4) cm-1        Axes

              Baa    -0.4692   -62.960   -22.466   -21.001  0.0000  1.0000  0.0000
     1 C(13)  Bbb    -0.4692   -62.960   -22.466   -21.001  1.0000  0.0000  0.0000
              Bcc     0.9384   125.920    44.931    42.002  0.0000  0.0000  1.0000
 
              Baa    -0.1106   -58.987   -21.048   -19.676  0.0000  1.0000  0.0000
     2 H(1)   Bbb    -0.1106   -58.987   -21.048   -19.676  1.0000  0.0000  0.0000
              Bcc     0.2211   117.974    42.096    39.352  0.0000  0.0000  1.0000
 
              Baa    -0.0568   -30.299   -10.812   -10.107  0.0000  1.0000  0.0000
     3 H(1)   Bbb    -0.0036    -1.924    -0.687    -0.642  0.2975  0.0000  0.9547
              Bcc     0.0604    32.224    11.498    10.749  0.9547  0.0000 -0.2975
 
              Baa    -0.0568   -30.299   -10.812   -10.107  0.8660 -0.5000  0.0000
     4 H(1)   Bbb    -0.0036    -1.924    -0.687    -0.642 -0.1488 -0.2576  0.9547
              Bcc     0.0604    32.224    11.498    10.749  0.4774  0.8268  0.2975
 
              Baa    -0.0568   -30.299   -10.812   -10.107  0.8660  0.5000  0.0000
     5 H(1)   Bbb    -0.0036    -1.924    -0.687    -0.642 -0.1488  0.2576  0.9547
              Bcc     0.0604    32.224    11.498    10.749 -0.4774  0.8268 -0.2975
 
              Baa    -0.0096    -5.146    -1.836    -1.717  0.0000  0.0000  1.0000
     6 H(1)   Bbb     0.0048     2.573     0.918     0.858  0.0000  1.0000  0.0000
              Bcc     0.0048     2.573     0.918     0.858  1.0000  0.0000  0.0000
 

 ---------------------------------------------------------------------------------

 No NMR shielding tensors so no spin-rotation constants.
 Leave Link  601 at Wed Nov  3 01:36:48 2010, MaxMem=  786432000 cpu:       4.1
 (Enter /share/apps/G09A02/g09/l9999.exe)
 1\1\GINC-COMPUTE-0-7\SP\ULC-BLYP\6-311+G(3df,2p)\C1H5(2)\WENXINZY\03-N
 ov-2010\0\\#p lc-blyp/6-311+g(3df,2p) nosymm scf=tight\\3 H2+CH3\\0,2\
 C\H,1,1.4741336\H,1,1.0837706,2,101.6831861\H,1,1.0837706,2,101.683186
 1,3,120.,0\H,1,1.0837706,2,101.6831861,3,-120.,0\H,2,0.8507423,1,180.,
 3,0.,0\\Version=EM64L-G09RevA.02\HF=-40.8609691\S2=0.763639\S2-1=0.\S2
 A=0.750052\RMSD=7.141e-09\Dipole=-0.0000009,0.,-0.256562\Quadrupole=0.
 6343668,0.6343656,-1.2687324,0.,-0.0000031,0.\PG=C03V [C3(H1H1C1),3SGV
 (H1)]\\@


 I take a simple view of life: keep your eyes open and get on with it.
 -- Laurence Olivier
 Job cpu time:  0 days  0 hours  4 minutes 56.5 seconds.
 File lengths (MBytes):  RWF=      9 Int=      0 D2E=      0 Chk=      1 Scr=      1
 Normal termination of Gaussian 09 at Wed Nov  3 01:36:48 2010.
