 Entering Gaussian System, Link 0=/share/apps/G09A02/g09/g09
 Input=./.script12553/Job_H2_CH3_22.com
 Output=./.script12553/Job_H2_CH3_22.log
 Initial command:
 /share/apps/G09A02/g09/l1.exe /state/partition1/wenxinzy/scratch/Gau-19803.inp -scrdir=/state/partition1/wenxinzy/scratch/
 Default is to use a total of   8 processors:
                                8 via shared-memory
                                1 via Linda
 Entering Link 1 = /share/apps/G09A02/g09/l1.exe PID=     19804.
  
 Copyright (c) 1988,1990,1992,1993,1995,1998,2003,2009, Gaussian, Inc.
                  All Rights Reserved.
  
 This is part of the Gaussian(R) 09 program.  It is based on
 the Gaussian(R) 03 system (copyright 2003, Gaussian, Inc.),
 the Gaussian(R) 98 system (copyright 1998, Gaussian, Inc.),
 the Gaussian(R) 94 system (copyright 1995, Gaussian, Inc.),
 the Gaussian 92(TM) system (copyright 1992, Gaussian, Inc.),
 the Gaussian 90(TM) system (copyright 1990, Gaussian, Inc.),
 the Gaussian 88(TM) system (copyright 1988, Gaussian, Inc.),
 the Gaussian 86(TM) system (copyright 1986, Carnegie Mellon
 University), and the Gaussian 82(TM) system (copyright 1983,
 Carnegie Mellon University). Gaussian is a federally registered
 trademark of Gaussian, Inc.
  
 This software contains proprietary and confidential information,
 including trade secrets, belonging to Gaussian, Inc.
  
 This software is provided under written license and may be
 used, copied, transmitted, or stored only in accord with that
 written license.
  
 The following legend is applicable only to US Government
 contracts under FAR:
  
                    RESTRICTED RIGHTS LEGEND
  
 Use, reproduction and disclosure by the US Government is
 subject to restrictions as set forth in subparagraphs (a)
 and (c) of the Commercial Computer Software - Restricted
 Rights clause in FAR 52.227-19.
  
 Gaussian, Inc.
 340 Quinnipiac St., Bldg. 40, Wallingford CT 06492
  
  
 ---------------------------------------------------------------
 Warning -- This program may not be used in any manner that
 competes with the business of Gaussian, Inc. or will provide
 assistance to any competitor of Gaussian, Inc.  The licensee
 of this program is prohibited from giving any competitor of
 Gaussian, Inc. access to this program.  By using this program,
 the user acknowledges that Gaussian, Inc. is engaged in the
 business of creating and licensing software in the field of
 computational chemistry and represents and warrants to the
 licensee that it is not a competitor of Gaussian, Inc. and that
 it will not use this program in any manner prohibited above.
 ---------------------------------------------------------------
  

 Cite this work as:
 Gaussian 09, Revision A.02,
 M. J. Frisch, G. W. Trucks, H. B. Schlegel, G. E. Scuseria, 
 M. A. Robb, J. R. Cheeseman, G. Scalmani, V. Barone, B. Mennucci, 
 G. A. Petersson, H. Nakatsuji, M. Caricato, X. Li, H. P. Hratchian, 
 A. F. Izmaylov, J. Bloino, G. Zheng, J. L. Sonnenberg, M. Hada, 
 M. Ehara, K. Toyota, R. Fukuda, J. Hasegawa, M. Ishida, T. Nakajima, 
 Y. Honda, O. Kitao, H. Nakai, T. Vreven, J. A. Montgomery, Jr., 
 J. E. Peralta, F. Ogliaro, M. Bearpark, J. J. Heyd, E. Brothers, 
 K. N. Kudin, V. N. Staroverov, R. Kobayashi, J. Normand, 
 K. Raghavachari, A. Rendell, J. C. Burant, S. S. Iyengar, J. Tomasi, 
 M. Cossi, N. Rega, J. M. Millam, M. Klene, J. E. Knox, J. B. Cross, 
 V. Bakken, C. Adamo, J. Jaramillo, R. Gomperts, R. E. Stratmann, 
 O. Yazyev, A. J. Austin, R. Cammi, C. Pomelli, J. W. Ochterski, 
 R. L. Martin, K. Morokuma, V. G. Zakrzewski, G. A. Voth, 
 P. Salvador, J. J. Dannenberg, S. Dapprich, A. D. Daniels, 
 O. Farkas, J. B. Foresman, J. V. Ortiz, J. Cioslowski, 
 and D. J. Fox, Gaussian, Inc., Wallingford CT, 2009.
 
 ******************************************
 Gaussian 09:  EM64L-G09RevA.02 11-Jun-2009
                 3-Nov-2010 
 ******************************************
 %chk=/state/partition1/wenxinzy/scratch/H2_CH3_22.chk
 %nproc=8
 Will use up to    8 processors via shared memory.
 %mem=6000mb
 -------------------------------------------
 #p lc-blyp/6-311+g(3df,2p) nosymm scf=tight
 -------------------------------------------
 1/38=1/1;
 2/12=2,15=1,17=6,18=5,40=1/2;
 3/5=4,6=6,7=216,11=2,16=1,25=1,30=1,74=1000402/1,2,3;
 4//1;
 5/5=2,32=2,38=5/2;
 6/7=2,8=2,9=2,10=2,28=1/1;
 99/5=1,9=1/99;
 Leave Link    1 at Wed Nov  3 01:48:28 2010, MaxMem=  786432000 cpu:       0.4
 (Enter /share/apps/G09A02/g09/l101.exe)
 ---------
 23 H2+CH3
 ---------
 Symbolic Z-matrix:
 Charge =  0 Multiplicity = 2
 C
 H1                   C    R1
 H2                   C    R2       H1   A1
 H3                   C    R2       H1   A1       H2    120.     0
 H4                   C    R2       H1   A1       H2   -120.     0
 H5                   H1   R3       C     180.     H2    0.       0
       Variables:
  R1                    2.62538                  
  R2                    1.07927                  
  A1                   90.30635                  
  R3                    0.74463                  
 
 NAtoms=      6 NQM=      6 NQMF=      0 NMic=      0 NMicF=      0 NTot=      6.
                    Isotopes and Nuclear Properties:
 (Nuclear quadrupole moments (NQMom) in fm**2, nuclear magnetic moments (NMagM)
  in nuclear magnetons)

  Atom         1           2           3           4           5           6
 IAtWgt=          12           1           1           1           1           1
 AtmWgt=  12.0000000   1.0078250   1.0078250   1.0078250   1.0078250   1.0078250
 NucSpn=           0           1           1           1           1           1
 AtZEff=   0.0000000   0.0000000   0.0000000   0.0000000   0.0000000   0.0000000
 NQMom=    0.0000000   0.0000000   0.0000000   0.0000000   0.0000000   0.0000000
 NMagM=    0.0000000   2.7928460   2.7928460   2.7928460   2.7928460   2.7928460
 Leave Link  101 at Wed Nov  3 01:48:28 2010, MaxMem=  786432000 cpu:       1.2
 (Enter /share/apps/G09A02/g09/l202.exe)
                          Input orientation:                          
 ---------------------------------------------------------------------
 Center     Atomic      Atomic             Coordinates (Angstroms)
 Number     Number       Type             X           Y           Z
 ---------------------------------------------------------------------
      1          6           0        0.000000    0.000000    0.000000
      2          1           0        0.000000    0.000000    2.625382
      3          1           0        1.079258    0.000000   -0.005771
      4          1           0       -0.539629   -0.934665   -0.005771
      5          1           0       -0.539629    0.934665   -0.005771
      6          1           0        0.000000    0.000000    3.370012
 ---------------------------------------------------------------------
                    Distance matrix (angstroms):
                    1          2          3          4          5
     1  C    0.000000
     2  H    2.625382   0.000000
     3  H    1.079274   2.843899   0.000000
     4  H    1.079274   2.843899   1.869331   0.000000
     5  H    1.079274   2.843899   1.869331   1.869331   0.000000
     6  H    3.370012   0.744630   3.544109   3.544109   3.544109
                    6
     6  H    0.000000
 Symmetry turned off by external request.
 Stoichiometry    CH5(2)
 Framework group  C3V[C3(HHC),3SGV(H)]
 Deg. of freedom     4
 Full point group                 C3V     NOp   6
 Rotational constants (GHZ):    143.5026313     28.0406919     28.0406919
 Leave Link  202 at Wed Nov  3 01:48:28 2010, MaxMem=  786432000 cpu:       0.0
 (Enter /share/apps/G09A02/g09/l301.exe)
 Standard basis: 6-311+G(3df,2p) (5D, 7F)
 Ernie: Thresh=  0.10000D-02 Tol=  0.10000D-05 Strict=F.
 Integral buffers will be    131072 words long.
 Raffenetti 2 integral format.
 Two-electron integral symmetry is turned off.
    84 basis functions,   113 primitive gaussians,    90 cartesian basis functions
     6 alpha electrons        5 beta electrons
       nuclear repulsion energy        13.5431460571 Hartrees.
 IExCor=10402 DFT=T Ex=LC-B+HF Corr=LYP ExCW=0 ScaHFX=  1.000000
 ScaDFX=  1.000000  1.000000  1.000000  1.000000 ScalE2=  1.000000  1.000000
 IRadAn=      0 IRanWt=     -1 IRanGd=            0 ICorTp=0
  HFx wShort=  0.000000 wLong=  0.470000 cFull=  0.000000 cShort=  0.000000 cLong=  1.000000
  DFx wShort=  0.000000 wLong=  0.470000 cFull=  0.000000 cShort=  0.000000 cLong=  1.000000
 NAtoms=    6 NActive=    6 NUniq=    6 SFac= 7.50D-01 NAtFMM=   80 NAOKFM=F Big=F
 Leave Link  301 at Wed Nov  3 01:48:28 2010, MaxMem=  786432000 cpu:       0.6
 (Enter /share/apps/G09A02/g09/l302.exe)
 NPDir=0 NMtPBC=     1 NCelOv=     1 NCel=       1 NClECP=     1 NCelD=      1
         NCelK=      1 NCelE2=     1 NClLst=     1 CellRange=     0.0.
 One-electron integrals computed using PRISM.
 NBasis=    84 RedAO= T  NBF=    84
 NBsUse=    84 1.00D-06 NBFU=    84
 Precomputing XC quadrature grid using
 IXCGrd= 2 IRadAn=           0 IRanWt=          -1 IRanGd=           0 AccXCQ= 1.00D-10.
 NRdTot=     384 NPtTot=       48302 NUsed=       51081 NTot=       51113
 NSgBfM=    90    90    90    90    90 NAtAll=     6     6.
 Leave Link  302 at Wed Nov  3 01:48:29 2010, MaxMem=  786432000 cpu:       2.5
 (Enter /share/apps/G09A02/g09/l303.exe)
 DipDrv:  MaxL=1.
 Leave Link  303 at Wed Nov  3 01:48:29 2010, MaxMem=  786432000 cpu:       0.5
 (Enter /share/apps/G09A02/g09/l401.exe)
 Harris functional with IExCor=10402 diagonalized for initial guess.
 ExpMin= 4.38D-02 ExpMax= 4.56D+03 ExpMxC= 6.82D+02 IAcc=2 IRadAn=         0 AccDes= 0.00D+00
 HarFok:  IExCor=10402 AccDes= 0.00D+00 IRadAn=         0 IDoV= 1
 ScaDFX=  1.000000  1.000000  1.000000  1.000000
 FoFCou: FMM=F IPFlag=           0 FMFlag=      100000 FMFlg1=           0
         NFxFlg=           0 DoJE=T BraDBF=F KetDBF=T FulRan=T
         Omega=  0.000000  0.000000  1.000000  0.000000  0.000000 ICntrl=     500 IOpCl=  0
         NMat0=    1 NMatS0=    1 NMatT0=    0 NMatD0=    1 NMtDS0=    0 NMtDT0=    0
         I1Cent=           4 NGrid=           0.
 Symmetry not used in FoFCou.
 Harris En= -38.5355468738490    
 Initial guess <Sx>= 0.0000 <Sy>= 0.0000 <Sz>= 0.5000 <S**2>= 0.7500 S= 0.5000
 Leave Link  401 at Wed Nov  3 01:48:29 2010, MaxMem=  786432000 cpu:       3.7
 (Enter /share/apps/G09A02/g09/l502.exe)
 UHF open shell SCF:
 Requested convergence on RMS density matrix=1.00D-08 within 128 cycles.
 Requested convergence on MAX density matrix=1.00D-06.
 Requested convergence on             energy=1.00D-06.
 No special actions if energy rises.
 Using DIIS extrapolation, IDIIS=  1040.
 Two-electron integral symmetry not used.
        51014 words used for storage of precomputed grid.
 IEnd=       94732 IEndB=       94732 NGot=   786432000 MDV=   786362099
 LenX=   786362099 LenY=   786353558
 Fock matrices will be formed incrementally for  20 cycles.

 Cycle   1  Pass 1  IDiag  1:
 FoFJK:  IHMeth= 1 ICntrl=     0 DoSepK=T KAlg= 1 I1Cent= 0 FoldK=F
 FoFCou: FMM=F IPFlag=           0 FMFlag=      100000 FMFlg1=           0
         NFxFlg=           0 DoJE=T BraDBF=F KetDBF=F FulRan=T
         Omega=  0.000000  0.000000  1.000000  0.000000  0.000000 ICntrl=     500 IOpCl=  0
         NMat0=    1 NMatS0=    1 NMatT0=    0 NMatD0=    1 NMtDS0=    0 NMtDT0=    0
         I1Cent=           0 NGrid=           0.
 Symmetry not used in FoFCou.
 E= -40.8557940920685    
 DIIS: error= 2.02D-02 at cycle   1 NSaved=   1.
 NSaved= 1 IEnMin= 1 EnMin= -40.8557940920685     IErMin= 1 ErrMin= 2.02D-02
 ErrMax= 2.02D-02 EMaxC= 1.00D-01 BMatC= 6.18D-02 BMatP= 6.18D-02
 IDIUse=3 WtCom= 7.98D-01 WtEn= 2.02D-01
 Coeff-Com:  0.100D+01
 Coeff-En:   0.100D+01
 Coeff:      0.100D+01
 Gap=     0.389 Goal=   None    Shift=    0.000
 Gap=     0.619 Goal=   None    Shift=    0.000
 GapD=    0.389 DampG=1.000 DampE=0.500 DampFc=0.5000 IDamp=-1.
 Damping current iteration by 5.00D-01
 RMSDP=1.52D-03 MaxDP=6.51D-02              OVMax= 5.31D-02

 Cycle   2  Pass 1  IDiag  1:
 RMSU=  5.64D-04    CP:  9.81D-01
 FoFJK:  IHMeth= 1 ICntrl=     0 DoSepK=T KAlg= 1 I1Cent= 0 FoldK=F
 E= -40.8646420006892     Delta-E=       -0.008847908621 Rises=F Damp=T
 DIIS: error= 9.08D-03 at cycle   2 NSaved=   2.
 NSaved= 2 IEnMin= 2 EnMin= -40.8646420006892     IErMin= 2 ErrMin= 9.08D-03
 ErrMax= 9.08D-03 EMaxC= 1.00D-01 BMatC= 9.93D-03 BMatP= 6.18D-02
 IDIUse=3 WtCom= 9.09D-01 WtEn= 9.08D-02
 Coeff-Com: -0.428D+00 0.143D+01
 Coeff-En:   0.000D+00 0.100D+01
 Coeff:     -0.389D+00 0.139D+01
 Gap=     0.430 Goal=   None    Shift=    0.000
 Gap=     0.566 Goal=   None    Shift=    0.000
 RMSDP=8.66D-04 MaxDP=2.40D-02 DE=-8.85D-03 OVMax= 4.33D-02

 Cycle   3  Pass 1  IDiag  1:
 RMSU=  4.98D-04    CP:  9.73D-01  1.92D+00
 FoFJK:  IHMeth= 1 ICntrl=     0 DoSepK=T KAlg= 1 I1Cent= 0 FoldK=F
 E= -40.8745391115567     Delta-E=       -0.009897110867 Rises=F Damp=F
 DIIS: error= 2.80D-03 at cycle   3 NSaved=   3.
 NSaved= 3 IEnMin= 3 EnMin= -40.8745391115567     IErMin= 3 ErrMin= 2.80D-03
 ErrMax= 2.80D-03 EMaxC= 1.00D-01 BMatC= 7.22D-04 BMatP= 9.93D-03
 IDIUse=3 WtCom= 9.72D-01 WtEn= 2.80D-02
 Coeff-Com: -0.627D-01-0.717D-01 0.113D+01
 Coeff-En:   0.000D+00 0.000D+00 0.100D+01
 Coeff:     -0.609D-01-0.697D-01 0.113D+01
 Gap=     0.433 Goal=   None    Shift=    0.000
 Gap=     0.565 Goal=   None    Shift=    0.000
 RMSDP=2.86D-04 MaxDP=9.82D-03 DE=-9.90D-03 OVMax= 2.17D-02

 Cycle   4  Pass 1  IDiag  1:
 RMSU=  7.37D-05    CP:  9.69D-01  2.20D+00  1.32D+00
 FoFJK:  IHMeth= 1 ICntrl=     0 DoSepK=T KAlg= 1 I1Cent= 0 FoldK=F
 E= -40.8750735540940     Delta-E=       -0.000534442537 Rises=F Damp=F
 DIIS: error= 1.19D-03 at cycle   4 NSaved=   4.
 NSaved= 4 IEnMin= 4 EnMin= -40.8750735540940     IErMin= 4 ErrMin= 1.19D-03
 ErrMax= 1.19D-03 EMaxC= 1.00D-01 BMatC= 5.64D-05 BMatP= 7.22D-04
 IDIUse=3 WtCom= 9.88D-01 WtEn= 1.19D-02
 Coeff-Com:  0.318D-01-0.503D-01-0.350D+00 0.137D+01
 Coeff-En:   0.000D+00 0.000D+00 0.000D+00 0.100D+01
 Coeff:      0.314D-01-0.497D-01-0.346D+00 0.136D+01
 Gap=     0.434 Goal=   None    Shift=    0.000
 Gap=     0.565 Goal=   None    Shift=    0.000
 RMSDP=1.11D-04 MaxDP=4.00D-03 DE=-5.34D-04 OVMax= 9.54D-03

 Cycle   5  Pass 1  IDiag  1:
 RMSU=  1.44D-05    CP:  9.68D-01  2.27D+00  1.45D+00  1.66D+00
 FoFJK:  IHMeth= 1 ICntrl=     0 DoSepK=T KAlg= 1 I1Cent= 0 FoldK=F
 E= -40.8751357654162     Delta-E=       -0.000062211322 Rises=F Damp=F
 DIIS: error= 2.24D-04 at cycle   5 NSaved=   5.
 NSaved= 5 IEnMin= 5 EnMin= -40.8751357654162     IErMin= 5 ErrMin= 2.24D-04
 ErrMax= 2.24D-04 EMaxC= 1.00D-01 BMatC= 3.70D-06 BMatP= 5.64D-05
 IDIUse=3 WtCom= 9.98D-01 WtEn= 2.24D-03
 Coeff-Com: -0.591D-02 0.210D-01 0.652D-01-0.523D+00 0.144D+01
 Coeff-En:   0.000D+00 0.000D+00 0.000D+00 0.000D+00 0.100D+01
 Coeff:     -0.590D-02 0.210D-01 0.651D-01-0.522D+00 0.144D+01
 Gap=     0.435 Goal=   None    Shift=    0.000
 Gap=     0.565 Goal=   None    Shift=    0.000
 RMSDP=2.40D-05 MaxDP=7.07D-04 DE=-6.22D-05 OVMax= 1.56D-03

 Cycle   6  Pass 1  IDiag  1:
 RMSU=  4.36D-06    CP:  9.68D-01  2.27D+00  1.46D+00  1.85D+00  1.69D+00
 FoFJK:  IHMeth= 1 ICntrl=     0 DoSepK=T KAlg= 1 I1Cent= 0 FoldK=F
 E= -40.8751391769335     Delta-E=       -0.000003411517 Rises=F Damp=F
 DIIS: error= 4.32D-05 at cycle   6 NSaved=   6.
 NSaved= 6 IEnMin= 6 EnMin= -40.8751391769335     IErMin= 6 ErrMin= 4.32D-05
 ErrMax= 4.32D-05 EMaxC= 1.00D-01 BMatC= 2.07D-07 BMatP= 3.70D-06
 IDIUse=1 WtCom= 1.00D+00 WtEn= 0.00D+00
 Coeff-Com: -0.671D-03-0.194D-02-0.127D-02 0.758D-01-0.408D+00 0.134D+01
 Coeff:     -0.671D-03-0.194D-02-0.127D-02 0.758D-01-0.408D+00 0.134D+01
 Gap=     0.435 Goal=   None    Shift=    0.000
 Gap=     0.565 Goal=   None    Shift=    0.000
 RMSDP=4.77D-06 MaxDP=9.74D-05 DE=-3.41D-06 OVMax= 2.29D-04

 Cycle   7  Pass 1  IDiag  1:
 RMSU=  1.45D-06    CP:  9.68D-01  2.27D+00  1.46D+00  1.86D+00  1.83D+00
                    CP:  1.69D+00
 FoFJK:  IHMeth= 1 ICntrl=     0 DoSepK=T KAlg= 1 I1Cent= 0 FoldK=F
 E= -40.8751393644231     Delta-E=       -0.000000187490 Rises=F Damp=F
 DIIS: error= 1.15D-05 at cycle   7 NSaved=   7.
 NSaved= 7 IEnMin= 7 EnMin= -40.8751393644231     IErMin= 7 ErrMin= 1.15D-05
 ErrMax= 1.15D-05 EMaxC= 1.00D-01 BMatC= 1.69D-08 BMatP= 2.07D-07
 IDIUse=1 WtCom= 1.00D+00 WtEn= 0.00D+00
 Coeff-Com:  0.802D-03-0.191D-02-0.534D-02 0.358D-01-0.659D-01-0.243D+00
 Coeff-Com:  0.128D+01
 Coeff:      0.802D-03-0.191D-02-0.534D-02 0.358D-01-0.659D-01-0.243D+00
 Coeff:      0.128D+01
 Gap=     0.435 Goal=   None    Shift=    0.000
 Gap=     0.565 Goal=   None    Shift=    0.000
 RMSDP=1.72D-06 MaxDP=3.64D-05 DE=-1.87D-07 OVMax= 8.29D-05

 Cycle   8  Pass 1  IDiag  1:
 RMSU=  2.88D-07    CP:  9.68D-01  2.27D+00  1.46D+00  1.86D+00  1.85D+00
                    CP:  1.96D+00  1.50D+00
 FoFJK:  IHMeth= 1 ICntrl=     0 DoSepK=T KAlg= 1 I1Cent= 0 FoldK=F
 E= -40.8751393802837     Delta-E=       -0.000000015861 Rises=F Damp=F
 DIIS: error= 1.92D-06 at cycle   8 NSaved=   8.
 NSaved= 8 IEnMin= 8 EnMin= -40.8751393802837     IErMin= 8 ErrMin= 1.92D-06
 ErrMax= 1.92D-06 EMaxC= 1.00D-01 BMatC= 6.06D-10 BMatP= 1.69D-08
 IDIUse=1 WtCom= 1.00D+00 WtEn= 0.00D+00
 Coeff-Com:  0.148D-06 0.253D-03 0.818D-03-0.916D-02 0.333D-01-0.504D-01
 Coeff-Com: -0.155D+00 0.118D+01
 Coeff:      0.148D-06 0.253D-03 0.818D-03-0.916D-02 0.333D-01-0.504D-01
 Coeff:     -0.155D+00 0.118D+01
 Gap=     0.435 Goal=   None    Shift=    0.000
 Gap=     0.565 Goal=   None    Shift=    0.000
 RMSDP=3.10D-07 MaxDP=8.87D-06 DE=-1.59D-08 OVMax= 1.28D-05

 Cycle   9  Pass 1  IDiag  1:
 RMSU=  5.16D-08    CP:  9.68D-01  2.27D+00  1.46D+00  1.86D+00  1.85D+00
                    CP:  1.99D+00  1.62D+00  1.41D+00
 FoFJK:  IHMeth= 1 ICntrl=     0 DoSepK=T KAlg= 1 I1Cent= 0 FoldK=F
 E= -40.8751393807133     Delta-E=       -0.000000000430 Rises=F Damp=F
 DIIS: error= 7.35D-07 at cycle   9 NSaved=   9.
 NSaved= 9 IEnMin= 9 EnMin= -40.8751393807133     IErMin= 9 ErrMin= 7.35D-07
 ErrMax= 7.35D-07 EMaxC= 1.00D-01 BMatC= 3.11D-11 BMatP= 6.06D-10
 IDIUse=1 WtCom= 1.00D+00 WtEn= 0.00D+00
 Coeff-Com: -0.371D-04-0.349D-05-0.115D-03 0.181D-02-0.874D-02 0.254D-01
 Coeff-Com:  0.677D-02-0.358D+00 0.133D+01
 Coeff:     -0.371D-04-0.349D-05-0.115D-03 0.181D-02-0.874D-02 0.254D-01
 Coeff:      0.677D-02-0.358D+00 0.133D+01
 Gap=     0.435 Goal=   None    Shift=    0.000
 Gap=     0.565 Goal=   None    Shift=    0.000
 RMSDP=6.66D-08 MaxDP=1.60D-06 DE=-4.30D-10 OVMax= 4.41D-06

 Cycle  10  Pass 1  IDiag  1:
 RMSU=  2.15D-08    CP:  9.68D-01  2.27D+00  1.46D+00  1.86D+00  1.85D+00
                    CP:  1.99D+00  1.62D+00  1.50D+00  1.56D+00
 FoFJK:  IHMeth= 1 ICntrl=     0 DoSepK=T KAlg= 1 I1Cent= 0 FoldK=F
 E= -40.8751393807448     Delta-E=       -0.000000000031 Rises=F Damp=F
 DIIS: error= 3.49D-07 at cycle  10 NSaved=  10.
 NSaved=10 IEnMin=10 EnMin= -40.8751393807448     IErMin=10 ErrMin= 3.49D-07
 ErrMax= 3.49D-07 EMaxC= 1.00D-01 BMatC= 4.84D-12 BMatP= 3.11D-11
 IDIUse=1 WtCom= 1.00D+00 WtEn= 0.00D+00
 Coeff-Com:  0.279D-04-0.252D-04 0.522D-05-0.336D-03 0.270D-02-0.122D-01
 Coeff-Com:  0.900D-02 0.127D+00-0.837D+00 0.171D+01
 Coeff:      0.279D-04-0.252D-04 0.522D-05-0.336D-03 0.270D-02-0.122D-01
 Coeff:      0.900D-02 0.127D+00-0.837D+00 0.171D+01
 Gap=     0.435 Goal=   None    Shift=    0.000
 Gap=     0.565 Goal=   None    Shift=    0.000
 RMSDP=3.24D-08 MaxDP=8.75D-07 DE=-3.15D-11 OVMax= 2.23D-06

 Cycle  11  Pass 1  IDiag  1:
 RMSU=  7.68D-09    CP:  9.68D-01  2.27D+00  1.46D+00  1.86D+00  1.85D+00
                    CP:  1.99D+00  1.62D+00  1.50D+00  1.82D+00  1.83D+00
 FoFJK:  IHMeth= 1 ICntrl=     0 DoSepK=T KAlg= 1 I1Cent= 0 FoldK=F
 E= -40.8751393807523     Delta-E=       -0.000000000007 Rises=F Damp=F
 DIIS: error= 9.41D-08 at cycle  11 NSaved=  11.
 NSaved=11 IEnMin=11 EnMin= -40.8751393807523     IErMin=11 ErrMin= 9.41D-08
 ErrMax= 9.41D-08 EMaxC= 1.00D-01 BMatC= 3.84D-13 BMatP= 4.84D-12
 IDIUse=1 WtCom= 1.00D+00 WtEn= 0.00D+00
 Coeff-Com: -0.746D-05 0.121D-04 0.102D-04-0.101D-03 0.799D-04 0.150D-02
 Coeff-Com: -0.502D-02-0.101D-02 0.151D+00-0.621D+00 0.147D+01
 Coeff:     -0.746D-05 0.121D-04 0.102D-04-0.101D-03 0.799D-04 0.150D-02
 Coeff:     -0.502D-02-0.101D-02 0.151D+00-0.621D+00 0.147D+01
 Gap=     0.435 Goal=   None    Shift=    0.000
 Gap=     0.565 Goal=   None    Shift=    0.000
 RMSDP=9.33D-09 MaxDP=3.15D-07 DE=-7.47D-12 OVMax= 6.40D-07

 SCF Done:  E(ULC-B+HF-LYP) =  -40.8751393808     A.U. after   11 cycles
             Convg  =    0.9333D-08             -V/T =  2.0048
 <Sx>= 0.0000 <Sy>= 0.0000 <Sz>= 0.5000 <S**2>= 0.7537 S= 0.5018
 <L.S>= 0.000000000000E+00
 KE= 4.067859438678D+01 PE=-1.211397512176D+02 EE= 2.604287139298D+01
 Annihilation of the first spin contaminant:
 S**2 before annihilation     0.7537,   after     0.7500
 Leave Link  502 at Wed Nov  3 01:49:01 2010, MaxMem=  786432000 cpu:     257.3
 (Enter /share/apps/G09A02/g09/l601.exe)
 Copying SCF densities to generalized density rwf, IOpCl= 1 IROHF=0.

 **********************************************************************

            Population analysis using the SCF density.

 **********************************************************************

 Alpha  occ. eigenvalues --  -10.14738  -0.85484  -0.56432  -0.55926  -0.55926
 Alpha  occ. eigenvalues --   -0.36545
 Alpha virt. eigenvalues --    0.06934   0.09160   0.09160   0.12509   0.16968
 Alpha virt. eigenvalues --    0.23350   0.23351   0.24534   0.37190   0.38162
 Alpha virt. eigenvalues --    0.38162   0.40316   0.40316   0.49387   0.60451
 Alpha virt. eigenvalues --    0.62911   0.62911   0.66500   0.66500   0.66829
 Alpha virt. eigenvalues --    0.73591   0.79817   0.82721   0.82721   0.94722
 Alpha virt. eigenvalues --    1.01274   1.01274   1.06404   1.15937   1.15938
 Alpha virt. eigenvalues --    1.21458   1.21458   1.30145   1.48996   1.48996
 Alpha virt. eigenvalues --    1.49550   1.67648   1.78721   1.78721   2.12974
 Alpha virt. eigenvalues --    2.15041   2.15041   2.47422   2.56198   2.60644
 Alpha virt. eigenvalues --    2.78450   2.78450   2.85997   3.05577   3.12988
 Alpha virt. eigenvalues --    3.12988   3.16717   3.20892   3.20892   3.57620
 Alpha virt. eigenvalues --    3.57620   3.72352   3.72352   3.92957   4.04103
 Alpha virt. eigenvalues --    4.27791   4.27791   4.35230   4.35230   4.39595
 Alpha virt. eigenvalues --    4.39595   4.44487   4.96511   5.35065   5.73333
 Alpha virt. eigenvalues --    5.73333   5.79548   7.15263   7.15264   7.31081
 Alpha virt. eigenvalues --    7.72991   7.72991  24.22844
  Beta  occ. eigenvalues --  -10.13315  -0.80886  -0.55993  -0.54864  -0.54864
  Beta virt. eigenvalues --    0.01614   0.06980   0.09018   0.09018   0.13649
  Beta virt. eigenvalues --    0.18780   0.23592   0.23593   0.25553   0.37815
  Beta virt. eigenvalues --    0.39315   0.39315   0.40311   0.40311   0.51058
  Beta virt. eigenvalues --    0.61115   0.63183   0.63183   0.67207   0.67207
  Beta virt. eigenvalues --    0.69336   0.74712   0.80801   0.82749   0.82749
  Beta virt. eigenvalues --    0.94685   1.01819   1.01819   1.07136   1.16005
  Beta virt. eigenvalues --    1.16005   1.21505   1.21505   1.31093   1.49524
  Beta virt. eigenvalues --    1.49525   1.51876   1.67729   1.83535   1.83535
  Beta virt. eigenvalues --    2.16041   2.16041   2.16164   2.48101   2.56241
  Beta virt. eigenvalues --    2.61036   2.79773   2.79773   2.91399   3.05977
  Beta virt. eigenvalues --    3.15933   3.15933   3.21209   3.24231   3.24231
  Beta virt. eigenvalues --    3.57825   3.57825   3.73253   3.73253   3.93281
  Beta virt. eigenvalues --    4.04468   4.27429   4.27429   4.35913   4.35913
  Beta virt. eigenvalues --    4.39810   4.39810   4.45133   4.96677   5.36014
  Beta virt. eigenvalues --    5.73925   5.73925   5.79689   7.21586   7.21587
  Beta virt. eigenvalues --    7.39106   7.74612   7.74612  24.24714
          Condensed to atoms (all electrons):
              1          2          3          4          5          6
     1  C    5.394482  -0.007497   0.401637   0.401635   0.401635  -0.012332
     2  H   -0.007497   0.582888  -0.000346  -0.000346  -0.000346   0.424549
     3  H    0.401637  -0.000346   0.444038  -0.020395  -0.020395  -0.000111
     4  H    0.401635  -0.000346  -0.020395   0.444041  -0.020394  -0.000111
     5  H    0.401635  -0.000346  -0.020395  -0.020394   0.444041  -0.000111
     6  H   -0.012332   0.424549  -0.000111  -0.000111  -0.000111   0.596364
 Mulliken atomic charges:
              1
     1  C   -0.579559
     2  H    0.001098
     3  H    0.195572
     4  H    0.195569
     5  H    0.195569
     6  H   -0.008249
 Sum of Mulliken atomic charges =   0.00000
 Mulliken charges with hydrogens summed into heavy atoms:
              1
     1  C    0.000000
 Sum of Mulliken charges with hydrogens summed into heavy atoms =   0.00000
          Atomic-Atomic Spin Densities.
              1          2          3          4          5          6
     1  C    1.064901  -0.003622   0.004687   0.004687   0.004687  -0.010533
     2  H   -0.003622  -0.014109  -0.000010  -0.000010  -0.000010   0.002991
     3  H    0.004687  -0.000010  -0.034273   0.002881   0.002881  -0.000061
     4  H    0.004687  -0.000010   0.002881  -0.034274   0.002881  -0.000061
     5  H    0.004687  -0.000010   0.002881   0.002881  -0.034274  -0.000061
     6  H   -0.010533   0.002991  -0.000061  -0.000061  -0.000061   0.029378
 Mulliken atomic spin densities:
              1
     1  C    1.064808
     2  H   -0.014771
     3  H   -0.023895
     4  H   -0.023897
     5  H   -0.023897
     6  H    0.021652
 Sum of Mulliken atomic spin densities =   1.00000
 Electronic spatial extent (au):  <R**2>=             99.9709
 Charge=              0.0000 electrons
 Dipole moment (field-independent basis, Debye):
    X=              0.0000    Y=              0.0000    Z=             -0.0909  Tot=              0.0909
 Quadrupole moment (field-independent basis, Debye-Ang):
   XX=             -9.4497   YY=             -9.4497   ZZ=            -11.1235
   XY=              0.0000   XZ=              0.0000   YZ=              0.0000
 Traceless Quadrupole moment (field-independent basis, Debye-Ang):
   XX=              0.5579   YY=              0.5579   ZZ=             -1.1159
   XY=              0.0000   XZ=              0.0000   YZ=              0.0000
 Octapole moment (field-independent basis, Debye-Ang**2):
  XXX=              0.9844  YYY=              0.0000  ZZZ=            -15.6706  XYY=             -0.9843
  XXY=              0.0000  XXZ=             -6.5221  XZZ=              0.0000  YZZ=              0.0000
  YYZ=             -6.5221  XYZ=              0.0000
 Hexadecapole moment (field-independent basis, Debye-Ang**3):
 XXXX=            -17.5724 YYYY=            -17.5724 ZZZZ=           -106.7053 XXXY=              0.0000
 XXXZ=             -0.0099 YYYX=              0.0000 YYYZ=              0.0000 ZZZX=              0.0000
 ZZZY=              0.0000 XXYY=             -5.8575 XXZZ=            -25.5720 YYZZ=            -25.5720
 XXYZ=              0.0000 YYXZ=              0.0099 ZZXY=              0.0000
 N-N= 1.354314605708D+01 E-N=-1.785869373301D+02  KE= 6.040879301703D+01
                          Isotropic Fermi Contact Couplings
        Atom                 a.u.       MegaHertz       Gauss      10(-4) cm-1
     1  C(13)              0.02904      32.64751      11.64944      10.89004
     2  H(1)              -0.00166      -7.40701      -2.64301      -2.47071
     3  H(1)              -0.01320     -59.02315     -21.06093     -19.68800
     4  H(1)              -0.01320     -59.02356     -21.06107     -19.68814
     5  H(1)              -0.01320     -59.02356     -21.06107     -19.68814
     6  H(1)               0.00812      36.28996      12.94916      12.10503
 --------------------------------------------------------
       Center         ----  Spin Dipole Couplings  ----
                      3XX-RR        3YY-RR        3ZZ-RR
 --------------------------------------------------------
     1   Atom       -0.593553     -0.593554      1.187107
     2   Atom       -0.014614     -0.014614      0.029227
     3   Atom        0.074489     -0.075312      0.000823
     4   Atom       -0.037862      0.037039      0.000823
     5   Atom       -0.037862      0.037039      0.000823
     6   Atom       -0.004162     -0.004162      0.008325
 --------------------------------------------------------
                        XY            XZ            YZ
 --------------------------------------------------------
     1   Atom        0.000000      0.000000      0.000000
     2   Atom        0.000000      0.000000      0.000000
     3   Atom        0.000000     -0.000575      0.000000
     4   Atom        0.064866      0.000288      0.000498
     5   Atom       -0.064866      0.000288     -0.000498
     6   Atom        0.000000      0.000000      0.000000
 --------------------------------------------------------


 ---------------------------------------------------------------------------------
              Anisotropic Spin Dipole Couplings in Principal Axis System
 ---------------------------------------------------------------------------------

       Atom             a.u.   MegaHertz   Gauss  10(-4) cm-1        Axes

              Baa    -0.5936   -79.649   -28.421   -26.568  0.0000  1.0000  0.0000
     1 C(13)  Bbb    -0.5936   -79.649   -28.421   -26.568  1.0000  0.0000  0.0000
              Bcc     1.1871   159.298    56.842    53.136  0.0000  0.0000  1.0000
 
              Baa    -0.0146    -7.797    -2.782    -2.601  1.0000  0.0000  0.0000
     2 H(1)   Bbb    -0.0146    -7.797    -2.782    -2.601  0.0000  1.0000  0.0000
              Bcc     0.0292    15.594     5.564     5.202  0.0000  0.0000  1.0000
 
              Baa    -0.0753   -40.183   -14.338   -13.404  0.0000  1.0000  0.0000
     3 H(1)   Bbb     0.0008     0.437     0.156     0.146  0.0078  0.0000  1.0000
              Bcc     0.0745    39.746    14.182    13.258  1.0000  0.0000 -0.0078
 
              Baa    -0.0753   -40.183   -14.338   -13.404  0.8660 -0.5000  0.0000
     4 H(1)   Bbb     0.0008     0.437     0.156     0.146 -0.0039 -0.0068  1.0000
              Bcc     0.0745    39.746    14.182    13.258  0.5000  0.8660  0.0078
 
              Baa    -0.0753   -40.183   -14.338   -13.404  0.8660  0.5000  0.0000
     5 H(1)   Bbb     0.0008     0.437     0.156     0.146 -0.0039  0.0068  1.0000
              Bcc     0.0745    39.746    14.182    13.258 -0.5000  0.8660 -0.0078
 
              Baa    -0.0042    -2.221    -0.792    -0.741  0.0000  1.0000  0.0000
     6 H(1)   Bbb    -0.0042    -2.221    -0.792    -0.741  1.0000  0.0000  0.0000
              Bcc     0.0083     4.442     1.585     1.482  0.0000  0.0000  1.0000
 

 ---------------------------------------------------------------------------------

 No NMR shielding tensors so no spin-rotation constants.
 Leave Link  601 at Wed Nov  3 01:49:02 2010, MaxMem=  786432000 cpu:       3.9
 (Enter /share/apps/G09A02/g09/l9999.exe)
 1\1\GINC-COMPUTE-0-7\SP\ULC-BLYP\6-311+G(3df,2p)\C1H5(2)\WENXINZY\03-N
 ov-2010\0\\#p lc-blyp/6-311+g(3df,2p) nosymm scf=tight\\23 H2+CH3\\0,2
 \C\H,1,2.6253823\H,1,1.0792739,2,90.3063461\H,1,1.0792739,2,90.3063461
 ,3,120.,0\H,1,1.0792739,2,90.3063461,3,-120.,0\H,2,0.7446296,1,180.,3,
 0.,0\\Version=EM64L-G09RevA.02\HF=-40.8751394\S2=0.753672\S2-1=0.\S2A=
 0.750008\RMSD=9.333e-09\Dipole=0.0000011,0.,-0.0357578\Quadrupole=0.41
 48171,0.4148156,-0.8296327,0.,0.0000035,0.\PG=C03V [C3(H1H1C1),3SGV(H1
 )]\\@


 THE PROGRESS OF RIVERS TO THE SEA IS NOT AS RAPID
 AS THAT OF MAN TO ERROR.
                                              -- VOLTAIRE
 Job cpu time:  0 days  0 hours  4 minutes 31.1 seconds.
 File lengths (MBytes):  RWF=      9 Int=      0 D2E=      0 Chk=      1 Scr=      1
 Normal termination of Gaussian 09 at Wed Nov  3 01:49:02 2010.
