 Entering Gaussian System, Link 0=/share/apps/G09A02/g09/g09
 Input=./.script12553/Job_H2_CH3_33.com
 Output=./.script12553/Job_H2_CH3_33.log
 Initial command:
 /share/apps/G09A02/g09/l1.exe /state/partition1/wenxinzy/scratch/Gau-20919.inp -scrdir=/state/partition1/wenxinzy/scratch/
 Default is to use a total of   8 processors:
                                8 via shared-memory
                                1 via Linda
 Entering Link 1 = /share/apps/G09A02/g09/l1.exe PID=     20920.
  
 Copyright (c) 1988,1990,1992,1993,1995,1998,2003,2009, Gaussian, Inc.
                  All Rights Reserved.
  
 This is part of the Gaussian(R) 09 program.  It is based on
 the Gaussian(R) 03 system (copyright 2003, Gaussian, Inc.),
 the Gaussian(R) 98 system (copyright 1998, Gaussian, Inc.),
 the Gaussian(R) 94 system (copyright 1995, Gaussian, Inc.),
 the Gaussian 92(TM) system (copyright 1992, Gaussian, Inc.),
 the Gaussian 90(TM) system (copyright 1990, Gaussian, Inc.),
 the Gaussian 88(TM) system (copyright 1988, Gaussian, Inc.),
 the Gaussian 86(TM) system (copyright 1986, Carnegie Mellon
 University), and the Gaussian 82(TM) system (copyright 1983,
 Carnegie Mellon University). Gaussian is a federally registered
 trademark of Gaussian, Inc.
  
 This software contains proprietary and confidential information,
 including trade secrets, belonging to Gaussian, Inc.
  
 This software is provided under written license and may be
 used, copied, transmitted, or stored only in accord with that
 written license.
  
 The following legend is applicable only to US Government
 contracts under FAR:
  
                    RESTRICTED RIGHTS LEGEND
  
 Use, reproduction and disclosure by the US Government is
 subject to restrictions as set forth in subparagraphs (a)
 and (c) of the Commercial Computer Software - Restricted
 Rights clause in FAR 52.227-19.
  
 Gaussian, Inc.
 340 Quinnipiac St., Bldg. 40, Wallingford CT 06492
  
  
 ---------------------------------------------------------------
 Warning -- This program may not be used in any manner that
 competes with the business of Gaussian, Inc. or will provide
 assistance to any competitor of Gaussian, Inc.  The licensee
 of this program is prohibited from giving any competitor of
 Gaussian, Inc. access to this program.  By using this program,
 the user acknowledges that Gaussian, Inc. is engaged in the
 business of creating and licensing software in the field of
 computational chemistry and represents and warrants to the
 licensee that it is not a competitor of Gaussian, Inc. and that
 it will not use this program in any manner prohibited above.
 ---------------------------------------------------------------
  

 Cite this work as:
 Gaussian 09, Revision A.02,
 M. J. Frisch, G. W. Trucks, H. B. Schlegel, G. E. Scuseria, 
 M. A. Robb, J. R. Cheeseman, G. Scalmani, V. Barone, B. Mennucci, 
 G. A. Petersson, H. Nakatsuji, M. Caricato, X. Li, H. P. Hratchian, 
 A. F. Izmaylov, J. Bloino, G. Zheng, J. L. Sonnenberg, M. Hada, 
 M. Ehara, K. Toyota, R. Fukuda, J. Hasegawa, M. Ishida, T. Nakajima, 
 Y. Honda, O. Kitao, H. Nakai, T. Vreven, J. A. Montgomery, Jr., 
 J. E. Peralta, F. Ogliaro, M. Bearpark, J. J. Heyd, E. Brothers, 
 K. N. Kudin, V. N. Staroverov, R. Kobayashi, J. Normand, 
 K. Raghavachari, A. Rendell, J. C. Burant, S. S. Iyengar, J. Tomasi, 
 M. Cossi, N. Rega, J. M. Millam, M. Klene, J. E. Knox, J. B. Cross, 
 V. Bakken, C. Adamo, J. Jaramillo, R. Gomperts, R. E. Stratmann, 
 O. Yazyev, A. J. Austin, R. Cammi, C. Pomelli, J. W. Ochterski, 
 R. L. Martin, K. Morokuma, V. G. Zakrzewski, G. A. Voth, 
 P. Salvador, J. J. Dannenberg, S. Dapprich, A. D. Daniels, 
 O. Farkas, J. B. Foresman, J. V. Ortiz, J. Cioslowski, 
 and D. J. Fox, Gaussian, Inc., Wallingford CT, 2009.
 
 ******************************************
 Gaussian 09:  EM64L-G09RevA.02 11-Jun-2009
                 3-Nov-2010 
 ******************************************
 %chk=/state/partition1/wenxinzy/scratch/H2_CH3_33.chk
 %nproc=8
 Will use up to    8 processors via shared memory.
 %mem=6000mb
 -------------------------------------------
 #p lc-blyp/6-311+g(3df,2p) nosymm scf=tight
 -------------------------------------------
 1/38=1/1;
 2/12=2,15=1,17=6,18=5,40=1/2;
 3/5=4,6=6,7=216,11=2,16=1,25=1,30=1,74=1000402/1,2,3;
 4//1;
 5/5=2,32=2,38=5/2;
 6/7=2,8=2,9=2,10=2,28=1/1;
 99/5=1,9=1/99;
 Leave Link    1 at Wed Nov  3 01:54:45 2010, MaxMem=  786432000 cpu:       0.5
 (Enter /share/apps/G09A02/g09/l101.exe)
 ---------
 34 H2+CH3
 ---------
 Symbolic Z-matrix:
 Charge =  0 Multiplicity = 2
 C
 H1                   C    R1
 H2                   C    R2       H1   A1
 H3                   C    R2       H1   A1       H2    120.     0
 H4                   C    R2       H1   A1       H2   -120.     0
 H5                   H1   R3       C     180.     H2    0.       0
       Variables:
  R1                    3.06851                  
  R2                    1.07923                  
  A1                   90.19734                  
  R3                    0.74345                  
 
 NAtoms=      6 NQM=      6 NQMF=      0 NMic=      0 NMicF=      0 NTot=      6.
                    Isotopes and Nuclear Properties:
 (Nuclear quadrupole moments (NQMom) in fm**2, nuclear magnetic moments (NMagM)
  in nuclear magnetons)

  Atom         1           2           3           4           5           6
 IAtWgt=          12           1           1           1           1           1
 AtmWgt=  12.0000000   1.0078250   1.0078250   1.0078250   1.0078250   1.0078250
 NucSpn=           0           1           1           1           1           1
 AtZEff=   0.0000000   0.0000000   0.0000000   0.0000000   0.0000000   0.0000000
 NQMom=    0.0000000   0.0000000   0.0000000   0.0000000   0.0000000   0.0000000
 NMagM=    0.0000000   2.7928460   2.7928460   2.7928460   2.7928460   2.7928460
 Leave Link  101 at Wed Nov  3 01:54:45 2010, MaxMem=  786432000 cpu:       1.2
 (Enter /share/apps/G09A02/g09/l202.exe)
                          Input orientation:                          
 ---------------------------------------------------------------------
 Center     Atomic      Atomic             Coordinates (Angstroms)
 Number     Number       Type             X           Y           Z
 ---------------------------------------------------------------------
      1          6           0        0.000000    0.000000    0.000000
      2          1           0        0.000000    0.000000    3.068513
      3          1           0        1.079219    0.000000   -0.003717
      4          1           0       -0.539609   -0.934631   -0.003717
      5          1           0       -0.539609    0.934631   -0.003717
      6          1           0        0.000000    0.000000    3.811967
 ---------------------------------------------------------------------
                    Distance matrix (angstroms):
                    1          2          3          4          5
     1  C    0.000000
     2  H    3.068513   0.000000
     3  H    1.079225   3.256273   0.000000
     4  H    1.079225   3.256273   1.869262   0.000000
     5  H    1.079225   3.256273   1.869262   1.869262   0.000000
     6  H    3.811967   0.743453   3.965370   3.965370   3.965370
                    6
     6  H    0.000000
 Symmetry turned off by external request.
 Stoichiometry    CH5(2)
 Framework group  C3V[C3(HHC),3SGV(H)]
 Deg. of freedom     4
 Full point group                 C3V     NOp   6
 Rotational constants (GHZ):    143.5131558     21.8947990     21.8947990
 Leave Link  202 at Wed Nov  3 01:54:45 2010, MaxMem=  786432000 cpu:       0.0
 (Enter /share/apps/G09A02/g09/l301.exe)
 Standard basis: 6-311+G(3df,2p) (5D, 7F)
 Ernie: Thresh=  0.10000D-02 Tol=  0.10000D-05 Strict=F.
 Integral buffers will be    131072 words long.
 Raffenetti 2 integral format.
 Two-electron integral symmetry is turned off.
    84 basis functions,   113 primitive gaussians,    90 cartesian basis functions
     6 alpha electrons        5 beta electrons
       nuclear repulsion energy        13.1425393308 Hartrees.
 IExCor=10402 DFT=T Ex=LC-B+HF Corr=LYP ExCW=0 ScaHFX=  1.000000
 ScaDFX=  1.000000  1.000000  1.000000  1.000000 ScalE2=  1.000000  1.000000
 IRadAn=      0 IRanWt=     -1 IRanGd=            0 ICorTp=0
  HFx wShort=  0.000000 wLong=  0.470000 cFull=  0.000000 cShort=  0.000000 cLong=  1.000000
  DFx wShort=  0.000000 wLong=  0.470000 cFull=  0.000000 cShort=  0.000000 cLong=  1.000000
 NAtoms=    6 NActive=    6 NUniq=    6 SFac= 7.50D-01 NAtFMM=   80 NAOKFM=F Big=F
 Leave Link  301 at Wed Nov  3 01:54:45 2010, MaxMem=  786432000 cpu:       0.7
 (Enter /share/apps/G09A02/g09/l302.exe)
 NPDir=0 NMtPBC=     1 NCelOv=     1 NCel=       1 NClECP=     1 NCelD=      1
         NCelK=      1 NCelE2=     1 NClLst=     1 CellRange=     0.0.
 One-electron integrals computed using PRISM.
 NBasis=    84 RedAO= T  NBF=    84
 NBsUse=    84 1.00D-06 NBFU=    84
 Precomputing XC quadrature grid using
 IXCGrd= 2 IRadAn=           0 IRanWt=          -1 IRanGd=           0 AccXCQ= 1.00D-10.
 NRdTot=     384 NPtTot=       48302 NUsed=       51081 NTot=       51113
 NSgBfM=    90    90    90    90    90 NAtAll=     6     6.
 Leave Link  302 at Wed Nov  3 01:54:45 2010, MaxMem=  786432000 cpu:       2.5
 (Enter /share/apps/G09A02/g09/l303.exe)
 DipDrv:  MaxL=1.
 Leave Link  303 at Wed Nov  3 01:54:45 2010, MaxMem=  786432000 cpu:       0.4
 (Enter /share/apps/G09A02/g09/l401.exe)
 Harris functional with IExCor=10402 diagonalized for initial guess.
 ExpMin= 4.38D-02 ExpMax= 4.56D+03 ExpMxC= 6.82D+02 IAcc=2 IRadAn=         0 AccDes= 0.00D+00
 HarFok:  IExCor=10402 AccDes= 0.00D+00 IRadAn=         0 IDoV= 1
 ScaDFX=  1.000000  1.000000  1.000000  1.000000
 FoFCou: FMM=F IPFlag=           0 FMFlag=      100000 FMFlg1=           0
         NFxFlg=           0 DoJE=T BraDBF=F KetDBF=T FulRan=T
         Omega=  0.000000  0.000000  1.000000  0.000000  0.000000 ICntrl=     500 IOpCl=  0
         NMat0=    1 NMatS0=    1 NMatT0=    0 NMatD0=    1 NMtDS0=    0 NMtDT0=    0
         I1Cent=           4 NGrid=           0.
 Symmetry not used in FoFCou.
 Harris En= -38.5361590363792    
 Initial guess <Sx>= 0.0000 <Sy>= 0.0000 <Sz>= 0.5000 <S**2>= 0.7500 S= 0.5000
 Leave Link  401 at Wed Nov  3 01:54:46 2010, MaxMem=  786432000 cpu:       3.6
 (Enter /share/apps/G09A02/g09/l502.exe)
 UHF open shell SCF:
 Requested convergence on RMS density matrix=1.00D-08 within 128 cycles.
 Requested convergence on MAX density matrix=1.00D-06.
 Requested convergence on             energy=1.00D-06.
 No special actions if energy rises.
 Using DIIS extrapolation, IDIIS=  1040.
 Two-electron integral symmetry not used.
        51014 words used for storage of precomputed grid.
 IEnd=       94732 IEndB=       94732 NGot=   786432000 MDV=   786362099
 LenX=   786362099 LenY=   786353558
 Fock matrices will be formed incrementally for  20 cycles.

 Cycle   1  Pass 1  IDiag  1:
 FoFJK:  IHMeth= 1 ICntrl=     0 DoSepK=T KAlg= 1 I1Cent= 0 FoldK=F
 FoFCou: FMM=F IPFlag=           0 FMFlag=      100000 FMFlg1=           0
         NFxFlg=           0 DoJE=T BraDBF=F KetDBF=F FulRan=T
         Omega=  0.000000  0.000000  1.000000  0.000000  0.000000 ICntrl=     500 IOpCl=  0
         NMat0=    1 NMatS0=    1 NMatT0=    0 NMatD0=    1 NMtDS0=    0 NMtDT0=    0
         I1Cent=           0 NGrid=           0.
 Symmetry not used in FoFCou.
 E= -40.8563024138034    
 DIIS: error= 2.09D-02 at cycle   1 NSaved=   1.
 NSaved= 1 IEnMin= 1 EnMin= -40.8563024138034     IErMin= 1 ErrMin= 2.09D-02
 ErrMax= 2.09D-02 EMaxC= 1.00D-01 BMatC= 6.03D-02 BMatP= 6.03D-02
 IDIUse=3 WtCom= 7.91D-01 WtEn= 2.09D-01
 Coeff-Com:  0.100D+01
 Coeff-En:   0.100D+01
 Coeff:      0.100D+01
 Gap=     0.390 Goal=   None    Shift=    0.000
 Gap=     0.621 Goal=   None    Shift=    0.000
 GapD=    0.390 DampG=1.000 DampE=0.500 DampFc=0.5000 IDamp=-1.
 Damping current iteration by 5.00D-01
 RMSDP=1.45D-03 MaxDP=6.44D-02              OVMax= 5.26D-02

 Cycle   2  Pass 1  IDiag  1:
 RMSU=  5.33D-04    CP:  9.82D-01
 FoFJK:  IHMeth= 1 ICntrl=     0 DoSepK=T KAlg= 1 I1Cent= 0 FoldK=F
 E= -40.8649053990018     Delta-E=       -0.008602985198 Rises=F Damp=T
 DIIS: error= 9.41D-03 at cycle   2 NSaved=   2.
 NSaved= 2 IEnMin= 2 EnMin= -40.8649053990018     IErMin= 2 ErrMin= 9.41D-03
 ErrMax= 9.41D-03 EMaxC= 1.00D-01 BMatC= 9.83D-03 BMatP= 6.03D-02
 IDIUse=3 WtCom= 9.06D-01 WtEn= 9.41D-02
 Coeff-Com: -0.436D+00 0.144D+01
 Coeff-En:   0.000D+00 0.100D+01
 Coeff:     -0.395D+00 0.139D+01
 Gap=     0.430 Goal=   None    Shift=    0.000
 Gap=     0.565 Goal=   None    Shift=    0.000
 RMSDP=7.89D-04 MaxDP=2.48D-02 DE=-8.60D-03 OVMax= 4.38D-02

 Cycle   3  Pass 1  IDiag  1:
 RMSU=  4.62D-04    CP:  9.76D-01  1.87D+00
 FoFJK:  IHMeth= 1 ICntrl=     0 DoSepK=T KAlg= 1 I1Cent= 0 FoldK=F
 E= -40.8745934599328     Delta-E=       -0.009688060931 Rises=F Damp=F
 DIIS: error= 2.90D-03 at cycle   3 NSaved=   3.
 NSaved= 3 IEnMin= 3 EnMin= -40.8745934599328     IErMin= 3 ErrMin= 2.90D-03
 ErrMax= 2.90D-03 EMaxC= 1.00D-01 BMatC= 7.25D-04 BMatP= 9.83D-03
 IDIUse=3 WtCom= 9.71D-01 WtEn= 2.90D-02
 Coeff-Com: -0.662D-01-0.649D-01 0.113D+01
 Coeff-En:   0.000D+00 0.000D+00 0.100D+01
 Coeff:     -0.642D-01-0.630D-01 0.113D+01
 Gap=     0.433 Goal=   None    Shift=    0.000
 Gap=     0.563 Goal=   None    Shift=    0.000
 RMSDP=2.68D-04 MaxDP=1.02D-02 DE=-9.69D-03 OVMax= 2.24D-02

 Cycle   4  Pass 1  IDiag  1:
 RMSU=  7.06D-05    CP:  9.73D-01  2.14D+00  1.33D+00
 FoFJK:  IHMeth= 1 ICntrl=     0 DoSepK=T KAlg= 1 I1Cent= 0 FoldK=F
 E= -40.8751304242521     Delta-E=       -0.000536964319 Rises=F Damp=F
 DIIS: error= 1.34D-03 at cycle   4 NSaved=   4.
 NSaved= 4 IEnMin= 4 EnMin= -40.8751304242521     IErMin= 4 ErrMin= 1.34D-03
 ErrMax= 1.34D-03 EMaxC= 1.00D-01 BMatC= 5.71D-05 BMatP= 7.25D-04
 IDIUse=3 WtCom= 9.87D-01 WtEn= 1.34D-02
 Coeff-Com:  0.349D-01-0.547D-01-0.361D+00 0.138D+01
 Coeff-En:   0.000D+00 0.000D+00 0.000D+00 0.100D+01
 Coeff:      0.344D-01-0.539D-01-0.356D+00 0.138D+01
 Gap=     0.435 Goal=   None    Shift=    0.000
 Gap=     0.563 Goal=   None    Shift=    0.000
 RMSDP=1.09D-04 MaxDP=4.24D-03 DE=-5.37D-04 OVMax= 9.96D-03

 Cycle   5  Pass 1  IDiag  1:
 RMSU=  1.37D-05    CP:  9.72D-01  2.21D+00  1.46D+00  1.68D+00
 FoFJK:  IHMeth= 1 ICntrl=     0 DoSepK=T KAlg= 1 I1Cent= 0 FoldK=F
 E= -40.8751945652942     Delta-E=       -0.000064141042 Rises=F Damp=F
 DIIS: error= 2.34D-04 at cycle   5 NSaved=   5.
 NSaved= 5 IEnMin= 5 EnMin= -40.8751945652942     IErMin= 5 ErrMin= 2.34D-04
 ErrMax= 2.34D-04 EMaxC= 1.00D-01 BMatC= 3.60D-06 BMatP= 5.71D-05
 IDIUse=3 WtCom= 9.98D-01 WtEn= 2.34D-03
 Coeff-Com: -0.698D-02 0.224D-01 0.723D-01-0.537D+00 0.145D+01
 Coeff-En:   0.000D+00 0.000D+00 0.000D+00 0.000D+00 0.100D+01
 Coeff:     -0.696D-02 0.223D-01 0.721D-01-0.536D+00 0.145D+01
 Gap=     0.435 Goal=   None    Shift=    0.000
 Gap=     0.563 Goal=   None    Shift=    0.000
 RMSDP=2.35D-05 MaxDP=7.27D-04 DE=-6.41D-05 OVMax= 1.54D-03

 Cycle   6  Pass 1  IDiag  1:
 RMSU=  4.11D-06    CP:  9.72D-01  2.21D+00  1.47D+00  1.87D+00  1.70D+00
 FoFJK:  IHMeth= 1 ICntrl=     0 DoSepK=T KAlg= 1 I1Cent= 0 FoldK=F
 E= -40.8751978556163     Delta-E=       -0.000003290322 Rises=F Damp=F
 DIIS: error= 3.90D-05 at cycle   6 NSaved=   6.
 NSaved= 6 IEnMin= 6 EnMin= -40.8751978556163     IErMin= 6 ErrMin= 3.90D-05
 ErrMax= 3.90D-05 EMaxC= 1.00D-01 BMatC= 1.90D-07 BMatP= 3.60D-06
 IDIUse=1 WtCom= 1.00D+00 WtEn= 0.00D+00
 Coeff-Com:  0.104D-03-0.428D-02-0.112D-01 0.137D+00-0.551D+00 0.143D+01
 Coeff:      0.104D-03-0.428D-02-0.112D-01 0.137D+00-0.551D+00 0.143D+01
 Gap=     0.435 Goal=   None    Shift=    0.000
 Gap=     0.563 Goal=   None    Shift=    0.000
 RMSDP=4.78D-06 MaxDP=1.01D-04 DE=-3.29D-06 OVMax= 2.35D-04

 Cycle   7  Pass 1  IDiag  1:
 RMSU=  1.23D-06    CP:  9.72D-01  2.21D+00  1.47D+00  1.87D+00  1.84D+00
                    CP:  1.78D+00
 FoFJK:  IHMeth= 1 ICntrl=     0 DoSepK=T KAlg= 1 I1Cent= 0 FoldK=F
 E= -40.8751980341296     Delta-E=       -0.000000178513 Rises=F Damp=F
 DIIS: error= 1.34D-05 at cycle   7 NSaved=   7.
 NSaved= 7 IEnMin= 7 EnMin= -40.8751980341296     IErMin= 7 ErrMin= 1.34D-05
 ErrMax= 1.34D-05 EMaxC= 1.00D-01 BMatC= 1.28D-08 BMatP= 1.90D-07
 IDIUse=1 WtCom= 1.00D+00 WtEn= 0.00D+00
 Coeff-Com:  0.816D-03-0.125D-02-0.249D-02 0.992D-02 0.160D-01-0.351D+00
 Coeff-Com:  0.133D+01
 Coeff:      0.816D-03-0.125D-02-0.249D-02 0.992D-02 0.160D-01-0.351D+00
 Coeff:      0.133D+01
 Gap=     0.435 Goal=   None    Shift=    0.000
 Gap=     0.563 Goal=   None    Shift=    0.000
 RMSDP=1.52D-06 MaxDP=3.53D-05 DE=-1.79D-07 OVMax= 7.56D-05

 Cycle   8  Pass 1  IDiag  1:
 RMSU=  2.67D-07    CP:  9.72D-01  2.21D+00  1.47D+00  1.87D+00  1.86D+00
                    CP:  2.04D+00  1.51D+00
 FoFJK:  IHMeth= 1 ICntrl=     0 DoSepK=T KAlg= 1 I1Cent= 0 FoldK=F
 E= -40.8751980456273     Delta-E=       -0.000000011498 Rises=F Damp=F
 DIIS: error= 1.43D-06 at cycle   8 NSaved=   8.
 NSaved= 8 IEnMin= 8 EnMin= -40.8751980456273     IErMin= 8 ErrMin= 1.43D-06
 ErrMax= 1.43D-06 EMaxC= 1.00D-01 BMatC= 2.97D-10 BMatP= 1.28D-08
 IDIUse=1 WtCom= 1.00D+00 WtEn= 0.00D+00
 Coeff-Com: -0.218D-04 0.244D-03 0.701D-03-0.780D-02 0.287D-01-0.594D-01
 Coeff-Com: -0.454D-01 0.108D+01
 Coeff:     -0.218D-04 0.244D-03 0.701D-03-0.780D-02 0.287D-01-0.594D-01
 Coeff:     -0.454D-01 0.108D+01
 Gap=     0.435 Goal=   None    Shift=    0.000
 Gap=     0.563 Goal=   None    Shift=    0.000
 RMSDP=2.15D-07 MaxDP=7.53D-06 DE=-1.15D-08 OVMax= 7.15D-06

 Cycle   9  Pass 1  IDiag  1:
 RMSU=  3.87D-08    CP:  9.72D-01  2.21D+00  1.47D+00  1.87D+00  1.86D+00
                    CP:  2.06D+00  1.60D+00  1.32D+00
 FoFJK:  IHMeth= 1 ICntrl=     0 DoSepK=T KAlg= 1 I1Cent= 0 FoldK=F
 E= -40.8751980457963     Delta-E=       -0.000000000169 Rises=F Damp=F
 DIIS: error= 5.99D-07 at cycle   9 NSaved=   9.
 NSaved= 9 IEnMin= 9 EnMin= -40.8751980457963     IErMin= 9 ErrMin= 5.99D-07
 ErrMax= 5.99D-07 EMaxC= 1.00D-01 BMatC= 1.77D-11 BMatP= 2.97D-10
 IDIUse=1 WtCom= 1.00D+00 WtEn= 0.00D+00
 Coeff-Com: -0.342D-04 0.829D-05-0.767D-04 0.127D-02-0.665D-02 0.259D-01
 Coeff-Com: -0.360D-01-0.228D+00 0.124D+01
 Coeff:     -0.342D-04 0.829D-05-0.767D-04 0.127D-02-0.665D-02 0.259D-01
 Coeff:     -0.360D-01-0.228D+00 0.124D+01
 Gap=     0.435 Goal=   None    Shift=    0.000
 Gap=     0.563 Goal=   None    Shift=    0.000
 RMSDP=5.26D-08 MaxDP=1.42D-06 DE=-1.69D-10 OVMax= 2.64D-06

 Cycle  10  Pass 1  IDiag  1:
 RMSU=  1.35D-08    CP:  9.72D-01  2.21D+00  1.47D+00  1.87D+00  1.86D+00
                    CP:  2.06D+00  1.61D+00  1.39D+00  1.47D+00
 FoFJK:  IHMeth= 1 ICntrl=     0 DoSepK=T KAlg= 1 I1Cent= 0 FoldK=F
 E= -40.8751980458100     Delta-E=       -0.000000000014 Rises=F Damp=F
 DIIS: error= 2.90D-07 at cycle  10 NSaved=  10.
 NSaved=10 IEnMin=10 EnMin= -40.8751980458100     IErMin=10 ErrMin= 2.90D-07
 ErrMax= 2.90D-07 EMaxC= 1.00D-01 BMatC= 2.56D-12 BMatP= 1.77D-11
 IDIUse=1 WtCom= 1.00D+00 WtEn= 0.00D+00
 Coeff-Com:  0.237D-04-0.263D-04-0.446D-05-0.134D-03 0.161D-02-0.101D-01
 Coeff-Com:  0.222D-01 0.518D-01-0.655D+00 0.159D+01
 Coeff:      0.237D-04-0.263D-04-0.446D-05-0.134D-03 0.161D-02-0.101D-01
 Coeff:      0.222D-01 0.518D-01-0.655D+00 0.159D+01
 Gap=     0.435 Goal=   None    Shift=    0.000
 Gap=     0.563 Goal=   None    Shift=    0.000
 RMSDP=1.99D-08 MaxDP=5.61D-07 DE=-1.37D-11 OVMax= 1.43D-06

 Cycle  11  Pass 1  IDiag  1:
 RMSU=  5.92D-09    CP:  9.72D-01  2.21D+00  1.47D+00  1.87D+00  1.86D+00
                    CP:  2.05D+00  1.61D+00  1.40D+00  1.67D+00  1.78D+00
 FoFJK:  IHMeth= 1 ICntrl=     0 DoSepK=T KAlg= 1 I1Cent= 0 FoldK=F
 E= -40.8751980458138     Delta-E=       -0.000000000004 Rises=F Damp=F
 DIIS: error= 9.84D-08 at cycle  11 NSaved=  11.
 NSaved=11 IEnMin=11 EnMin= -40.8751980458138     IErMin=11 ErrMin= 9.84D-08
 ErrMax= 9.84D-08 EMaxC= 1.00D-01 BMatC= 2.89D-13 BMatP= 2.56D-12
 IDIUse=1 WtCom= 1.00D+00 WtEn= 0.00D+00
 Coeff-Com: -0.804D-05 0.130D-04 0.102D-04-0.101D-03 0.103D-03 0.141D-02
 Coeff-Com: -0.616D-02 0.579D-02 0.140D+00-0.731D+00 0.159D+01
 Coeff:     -0.804D-05 0.130D-04 0.102D-04-0.101D-03 0.103D-03 0.141D-02
 Coeff:     -0.616D-02 0.579D-02 0.140D+00-0.731D+00 0.159D+01
 Gap=     0.435 Goal=   None    Shift=    0.000
 Gap=     0.563 Goal=   None    Shift=    0.000
 RMSDP=8.28D-09 MaxDP=2.74D-07 DE=-3.87D-12 OVMax= 6.15D-07

 SCF Done:  E(ULC-B+HF-LYP) =  -40.8751980458     A.U. after   11 cycles
             Convg  =    0.8276D-08             -V/T =  2.0050
 <Sx>= 0.0000 <Sy>= 0.0000 <Sz>= 0.5000 <S**2>= 0.7536 S= 0.5018
 <L.S>= 0.000000000000E+00
 KE= 4.067325414895D+01 PE=-1.203357039931D+02 EE= 2.564471246760D+01
 Annihilation of the first spin contaminant:
 S**2 before annihilation     0.7536,   after     0.7500
 Leave Link  502 at Wed Nov  3 01:55:18 2010, MaxMem=  786432000 cpu:     256.1
 (Enter /share/apps/G09A02/g09/l601.exe)
 Copying SCF densities to generalized density rwf, IOpCl= 1 IROHF=0.

 **********************************************************************

            Population analysis using the SCF density.

 **********************************************************************

 Alpha  occ. eigenvalues --  -10.14728  -0.85389  -0.56407  -0.55876  -0.55876
 Alpha  occ. eigenvalues --   -0.36630
 Alpha virt. eigenvalues --    0.06876   0.09240   0.09240   0.12798   0.16214
 Alpha virt. eigenvalues --    0.23393   0.23393   0.24052   0.35829   0.38872
 Alpha virt. eigenvalues --    0.38872   0.40351   0.40351   0.46939   0.62897
 Alpha virt. eigenvalues --    0.62897   0.63273   0.63866   0.66050   0.66050
 Alpha virt. eigenvalues --    0.71591   0.81134   0.82629   0.82630   0.94767
 Alpha virt. eigenvalues --    1.00349   1.00349   1.01921   1.12710   1.12710
 Alpha virt. eigenvalues --    1.18748   1.18748   1.20960   1.46694   1.49056
 Alpha virt. eigenvalues --    1.49056   1.61254   1.78656   1.78656   2.10811
 Alpha virt. eigenvalues --    2.14508   2.14508   2.40312   2.54683   2.58993
 Alpha virt. eigenvalues --    2.76863   2.76864   2.83683   3.05624   3.12527
 Alpha virt. eigenvalues --    3.12527   3.15558   3.20824   3.20824   3.54941
 Alpha virt. eigenvalues --    3.54941   3.72348   3.72348   3.87429   4.01847
 Alpha virt. eigenvalues --    4.27854   4.27854   4.33708   4.33708   4.35170
 Alpha virt. eigenvalues --    4.37777   4.37777   4.96584   5.35070   5.72850
 Alpha virt. eigenvalues --    5.72850   5.74573   7.15147   7.15148   7.28067
 Alpha virt. eigenvalues --    7.72580   7.72580  24.22731
  Beta  occ. eigenvalues --  -10.13308  -0.80787  -0.56259  -0.54814  -0.54814
  Beta virt. eigenvalues --    0.01490   0.06794   0.09066   0.09066   0.14892
  Beta virt. eigenvalues --    0.17138   0.23626   0.23626   0.24971   0.36066
  Beta virt. eigenvalues --    0.40026   0.40026   0.40387   0.40388   0.48618
  Beta virt. eigenvalues --    0.63005   0.63005   0.63490   0.66800   0.66800
  Beta virt. eigenvalues --    0.67708   0.71823   0.82038   0.82608   0.82608
  Beta virt. eigenvalues --    0.94732   1.00812   1.00812   1.02724   1.12849
  Beta virt. eigenvalues --    1.12849   1.18750   1.18750   1.21357   1.49470
  Beta virt. eigenvalues --    1.49579   1.49579   1.61347   1.83471   1.83471
  Beta virt. eigenvalues --    2.13985   2.15487   2.15488   2.40754   2.54885
  Beta virt. eigenvalues --    2.59018   2.78130   2.78130   2.89362   3.06023
  Beta virt. eigenvalues --    3.15474   3.15474   3.19857   3.24218   3.24218
  Beta virt. eigenvalues --    3.55015   3.55015   3.73255   3.73255   3.87645
  Beta virt. eigenvalues --    4.02250   4.27490   4.27490   4.34096   4.34096
  Beta virt. eigenvalues --    4.35887   4.38222   4.38222   4.96750   5.36029
  Beta virt. eigenvalues --    5.73436   5.73436   5.74625   7.21459   7.21461
  Beta virt. eigenvalues --    7.36081   7.74197   7.74197  24.24598
          Condensed to atoms (all electrons):
              1          2          3          4          5          6
     1  C    5.373130  -0.003706   0.401772   0.401774   0.401774  -0.005545
     2  H   -0.003706   0.587746   0.000042   0.000042   0.000042   0.422343
     3  H    0.401772   0.000042   0.448953  -0.021058  -0.021058   0.000018
     4  H    0.401774   0.000042  -0.021058   0.448949  -0.021058   0.000018
     5  H    0.401774   0.000042  -0.021058  -0.021058   0.448949   0.000018
     6  H   -0.005545   0.422343   0.000018   0.000018   0.000018   0.581436
 Mulliken atomic charges:
              1
     1  C   -0.569199
     2  H   -0.006510
     3  H    0.191330
     4  H    0.191332
     5  H    0.191332
     6  H    0.001714
 Sum of Mulliken atomic charges =   0.00000
 Mulliken charges with hydrogens summed into heavy atoms:
              1
     1  C    0.000000
 Sum of Mulliken charges with hydrogens summed into heavy atoms =   0.00000
          Atomic-Atomic Spin Densities.
              1          2          3          4          5          6
     1  C    1.058223  -0.000795   0.005140   0.005139   0.005139  -0.004138
     2  H   -0.000795  -0.004907  -0.000014  -0.000014  -0.000014   0.000489
     3  H    0.005140  -0.000014  -0.034648   0.002926   0.002926  -0.000015
     4  H    0.005139  -0.000014   0.002926  -0.034647   0.002926  -0.000015
     5  H    0.005139  -0.000014   0.002926   0.002926  -0.034647  -0.000015
     6  H   -0.004138   0.000489  -0.000015  -0.000015  -0.000015   0.011293
 Mulliken atomic spin densities:
              1
     1  C    1.068709
     2  H   -0.005256
     3  H   -0.023684
     4  H   -0.023684
     5  H   -0.023684
     6  H    0.007599
 Sum of Mulliken atomic spin densities =   1.00000
 Electronic spatial extent (au):  <R**2>=            120.2577
 Charge=              0.0000 electrons
 Dipole moment (field-independent basis, Debye):
    X=              0.0000    Y=              0.0000    Z=             -0.0641  Tot=              0.0641
 Quadrupole moment (field-independent basis, Debye-Ang):
   XX=             -9.4675   YY=             -9.4674   ZZ=            -11.0109
   XY=              0.0000   XZ=              0.0000   YZ=              0.0000
 Traceless Quadrupole moment (field-independent basis, Debye-Ang):
   XX=              0.5145   YY=              0.5145   ZZ=             -1.0290
   XY=              0.0000   XZ=              0.0000   YZ=              0.0000
 Octapole moment (field-independent basis, Debye-Ang**2):
  XXX=              0.9807  YYY=              0.0000  ZZZ=            -17.3050  XYY=             -0.9807
  XXY=              0.0000  XXZ=             -7.4988  XZZ=              0.0000  YZZ=              0.0000
  YYZ=             -7.4988  XYZ=              0.0000
 Hexadecapole moment (field-independent basis, Debye-Ang**3):
 XXXX=            -17.6414 YYYY=            -17.6414 ZZZZ=           -132.0584 XXXY=              0.0000
 XXXZ=             -0.0064 YYYX=              0.0000 YYYZ=              0.0000 ZZZX=              0.0000
 ZZZY=              0.0000 XXYY=             -5.8805 XXZZ=            -31.7710 YYZZ=            -31.7710
 XXYZ=              0.0000 YYXZ=              0.0064 ZZXY=              0.0000
 N-N= 1.314253933077D+01 E-N=-1.774116243190D+02  KE= 6.040658833712D+01
                          Isotropic Fermi Contact Couplings
        Atom                 a.u.       MegaHertz       Gauss      10(-4) cm-1
     1  C(13)              0.02873      32.29678      11.52429      10.77305
     2  H(1)              -0.00042      -1.89562      -0.67641      -0.63231
     3  H(1)              -0.01320     -59.00970     -21.05613     -19.68352
     4  H(1)              -0.01320     -59.01012     -21.05628     -19.68366
     5  H(1)              -0.01320     -59.01012     -21.05628     -19.68366
     6  H(1)               0.00299      13.34385       4.76142       4.45103
 --------------------------------------------------------
       Center         ----  Spin Dipole Couplings  ----
                      3XX-RR        3YY-RR        3ZZ-RR
 --------------------------------------------------------
     1   Atom       -0.592118     -0.592120      1.184238
     2   Atom       -0.007961     -0.007961      0.015922
     3   Atom        0.074224     -0.075274      0.001050
     4   Atom       -0.037899      0.036850      0.001050
     5   Atom       -0.037899      0.036850      0.001050
     6   Atom       -0.003107     -0.003107      0.006215
 --------------------------------------------------------
                        XY            XZ            YZ
 --------------------------------------------------------
     1   Atom        0.000000     -0.000001      0.000000
     2   Atom        0.000000      0.000000      0.000000
     3   Atom        0.000000     -0.000206      0.000000
     4   Atom        0.064734      0.000103      0.000178
     5   Atom       -0.064734      0.000103     -0.000178
     6   Atom        0.000000      0.000000      0.000000
 --------------------------------------------------------


 ---------------------------------------------------------------------------------
              Anisotropic Spin Dipole Couplings in Principal Axis System
 ---------------------------------------------------------------------------------

       Atom             a.u.   MegaHertz   Gauss  10(-4) cm-1        Axes

              Baa    -0.5921   -79.457   -28.352   -26.504  0.0000  1.0000  0.0000
     1 C(13)  Bbb    -0.5921   -79.457   -28.352   -26.504  1.0000  0.0000  0.0000
              Bcc     1.1842   158.913    56.704    53.008  0.0000  0.0000  1.0000
 
              Baa    -0.0080    -4.248    -1.516    -1.417  1.0000  0.0000  0.0000
     2 H(1)   Bbb    -0.0080    -4.248    -1.516    -1.417  0.0000  1.0000  0.0000
              Bcc     0.0159     8.495     3.031     2.834  0.0000  0.0000  1.0000
 
              Baa    -0.0753   -40.162   -14.331   -13.397  0.0000  1.0000  0.0000
     3 H(1)   Bbb     0.0010     0.560     0.200     0.187  0.0028  0.0000  1.0000
              Bcc     0.0742    39.603    14.131    13.210  1.0000  0.0000 -0.0028
 
              Baa    -0.0753   -40.162   -14.331   -13.397  0.8660 -0.5000  0.0000
     4 H(1)   Bbb     0.0010     0.560     0.200     0.187 -0.0014 -0.0024  1.0000
              Bcc     0.0742    39.603    14.131    13.210  0.5000  0.8660  0.0028
 
              Baa    -0.0753   -40.162   -14.331   -13.397  0.8660  0.5000  0.0000
     5 H(1)   Bbb     0.0010     0.560     0.200     0.187 -0.0014  0.0024  1.0000
              Bcc     0.0742    39.603    14.131    13.210 -0.5000  0.8660 -0.0028
 
              Baa    -0.0031    -1.658    -0.592    -0.553  1.0000  0.0000  0.0000
     6 H(1)   Bbb    -0.0031    -1.658    -0.592    -0.553  0.0000  1.0000  0.0000
              Bcc     0.0062     3.316     1.183     1.106  0.0000  0.0000  1.0000
 

 ---------------------------------------------------------------------------------

 No NMR shielding tensors so no spin-rotation constants.
 Leave Link  601 at Wed Nov  3 01:55:18 2010, MaxMem=  786432000 cpu:       3.8
 (Enter /share/apps/G09A02/g09/l9999.exe)
 1\1\GINC-COMPUTE-0-7\SP\ULC-BLYP\6-311+G(3df,2p)\C1H5(2)\WENXINZY\03-N
 ov-2010\0\\#p lc-blyp/6-311+g(3df,2p) nosymm scf=tight\\34 H2+CH3\\0,2
 \C\H,1,3.0685133\H,1,1.0792253,2,90.1973393\H,1,1.0792253,2,90.1973393
 ,3,120.,0\H,1,1.0792253,2,90.1973393,3,-120.,0\H,2,0.7434533,1,180.,3,
 0.,0\\Version=EM64L-G09RevA.02\HF=-40.875198\S2=0.753552\S2-1=0.\S2A=0
 .750007\RMSD=8.276e-09\Dipole=-0.0000007,0.,-0.0252196\Quadrupole=0.38
 25097,0.3825132,-0.7650229,0.,0.0000035,0.\PG=C03V [C3(H1H1C1),3SGV(H1
 )]\\@


    UPON JULIA'S CLOTHES

 WHENAS IN SILKS MY JULIA GOES,
 THEN, THEN, METHINKS, HOW SWEETLY FLOWS
 THAT LIQUEFACTION OF HER CLOTHES.

 NEXT, WHEN I CAST MINE EYES, AND SEE
 THAT BRAVE VIBRATION, EACH WAY FREE,
 O, HOW THAT GLITTERING TAKETH ME!
     -- ROBERT HERRICK, 1648
 Job cpu time:  0 days  0 hours  4 minutes 29.7 seconds.
 File lengths (MBytes):  RWF=      9 Int=      0 D2E=      0 Chk=      1 Scr=      1
 Normal termination of Gaussian 09 at Wed Nov  3 01:55:18 2010.
