 Entering Gaussian System, Link 0=/share/apps/G09A02/g09/g09
 Input=./.script12553/Job_H2_CH3_14.com
 Output=./.script12553/Job_H2_CH3_14.log
 Initial command:
 /share/apps/G09A02/g09/l1.exe /state/partition1/wenxinzy/scratch/Gau-18989.inp -scrdir=/state/partition1/wenxinzy/scratch/
 Default is to use a total of   8 processors:
                                8 via shared-memory
                                1 via Linda
 Entering Link 1 = /share/apps/G09A02/g09/l1.exe PID=     18990.
  
 Copyright (c) 1988,1990,1992,1993,1995,1998,2003,2009, Gaussian, Inc.
                  All Rights Reserved.
  
 This is part of the Gaussian(R) 09 program.  It is based on
 the Gaussian(R) 03 system (copyright 2003, Gaussian, Inc.),
 the Gaussian(R) 98 system (copyright 1998, Gaussian, Inc.),
 the Gaussian(R) 94 system (copyright 1995, Gaussian, Inc.),
 the Gaussian 92(TM) system (copyright 1992, Gaussian, Inc.),
 the Gaussian 90(TM) system (copyright 1990, Gaussian, Inc.),
 the Gaussian 88(TM) system (copyright 1988, Gaussian, Inc.),
 the Gaussian 86(TM) system (copyright 1986, Carnegie Mellon
 University), and the Gaussian 82(TM) system (copyright 1983,
 Carnegie Mellon University). Gaussian is a federally registered
 trademark of Gaussian, Inc.
  
 This software contains proprietary and confidential information,
 including trade secrets, belonging to Gaussian, Inc.
  
 This software is provided under written license and may be
 used, copied, transmitted, or stored only in accord with that
 written license.
  
 The following legend is applicable only to US Government
 contracts under FAR:
  
                    RESTRICTED RIGHTS LEGEND
  
 Use, reproduction and disclosure by the US Government is
 subject to restrictions as set forth in subparagraphs (a)
 and (c) of the Commercial Computer Software - Restricted
 Rights clause in FAR 52.227-19.
  
 Gaussian, Inc.
 340 Quinnipiac St., Bldg. 40, Wallingford CT 06492
  
  
 ---------------------------------------------------------------
 Warning -- This program may not be used in any manner that
 competes with the business of Gaussian, Inc. or will provide
 assistance to any competitor of Gaussian, Inc.  The licensee
 of this program is prohibited from giving any competitor of
 Gaussian, Inc. access to this program.  By using this program,
 the user acknowledges that Gaussian, Inc. is engaged in the
 business of creating and licensing software in the field of
 computational chemistry and represents and warrants to the
 licensee that it is not a competitor of Gaussian, Inc. and that
 it will not use this program in any manner prohibited above.
 ---------------------------------------------------------------
  

 Cite this work as:
 Gaussian 09, Revision A.02,
 M. J. Frisch, G. W. Trucks, H. B. Schlegel, G. E. Scuseria, 
 M. A. Robb, J. R. Cheeseman, G. Scalmani, V. Barone, B. Mennucci, 
 G. A. Petersson, H. Nakatsuji, M. Caricato, X. Li, H. P. Hratchian, 
 A. F. Izmaylov, J. Bloino, G. Zheng, J. L. Sonnenberg, M. Hada, 
 M. Ehara, K. Toyota, R. Fukuda, J. Hasegawa, M. Ishida, T. Nakajima, 
 Y. Honda, O. Kitao, H. Nakai, T. Vreven, J. A. Montgomery, Jr., 
 J. E. Peralta, F. Ogliaro, M. Bearpark, J. J. Heyd, E. Brothers, 
 K. N. Kudin, V. N. Staroverov, R. Kobayashi, J. Normand, 
 K. Raghavachari, A. Rendell, J. C. Burant, S. S. Iyengar, J. Tomasi, 
 M. Cossi, N. Rega, J. M. Millam, M. Klene, J. E. Knox, J. B. Cross, 
 V. Bakken, C. Adamo, J. Jaramillo, R. Gomperts, R. E. Stratmann, 
 O. Yazyev, A. J. Austin, R. Cammi, C. Pomelli, J. W. Ochterski, 
 R. L. Martin, K. Morokuma, V. G. Zakrzewski, G. A. Voth, 
 P. Salvador, J. J. Dannenberg, S. Dapprich, A. D. Daniels, 
 O. Farkas, J. B. Foresman, J. V. Ortiz, J. Cioslowski, 
 and D. J. Fox, Gaussian, Inc., Wallingford CT, 2009.
 
 ******************************************
 Gaussian 09:  EM64L-G09RevA.02 11-Jun-2009
                 3-Nov-2010 
 ******************************************
 %chk=/state/partition1/wenxinzy/scratch/H2_CH3_14.chk
 %nproc=8
 Will use up to    8 processors via shared memory.
 %mem=6000mb
 -------------------------------------------
 #p lc-blyp/6-311+g(3df,2p) nosymm scf=tight
 -------------------------------------------
 1/38=1/1;
 2/12=2,15=1,17=6,18=5,40=1/2;
 3/5=4,6=6,7=216,11=2,16=1,25=1,30=1,74=1000402/1,2,3;
 4//1;
 5/5=2,32=2,38=5/2;
 6/7=2,8=2,9=2,10=2,28=1/1;
 99/5=1,9=1/99;
 Leave Link    1 at Wed Nov  3 01:43:40 2010, MaxMem=  786432000 cpu:       0.4
 (Enter /share/apps/G09A02/g09/l101.exe)
 ---------
 15 H2+CH3
 ---------
 Symbolic Z-matrix:
 Charge =  0 Multiplicity = 2
 C
 H1                   C    R1
 H2                   C    R2       H1   A1
 H3                   C    R2       H1   A1       H2    120.     0
 H4                   C    R2       H1   A1       H2   -120.     0
 H5                   H1   R3       C     180.     H2    0.       0
       Variables:
  R1                    2.19038                  
  R2                    1.07932                  
  A1                   91.45394                  
  R3                    0.74907                  
 
 NAtoms=      6 NQM=      6 NQMF=      0 NMic=      0 NMicF=      0 NTot=      6.
                    Isotopes and Nuclear Properties:
 (Nuclear quadrupole moments (NQMom) in fm**2, nuclear magnetic moments (NMagM)
  in nuclear magnetons)

  Atom         1           2           3           4           5           6
 IAtWgt=          12           1           1           1           1           1
 AtmWgt=  12.0000000   1.0078250   1.0078250   1.0078250   1.0078250   1.0078250
 NucSpn=           0           1           1           1           1           1
 AtZEff=   0.0000000   0.0000000   0.0000000   0.0000000   0.0000000   0.0000000
 NQMom=    0.0000000   0.0000000   0.0000000   0.0000000   0.0000000   0.0000000
 NMagM=    0.0000000   2.7928460   2.7928460   2.7928460   2.7928460   2.7928460
 Leave Link  101 at Wed Nov  3 01:43:40 2010, MaxMem=  786432000 cpu:       1.2
 (Enter /share/apps/G09A02/g09/l202.exe)
                          Input orientation:                          
 ---------------------------------------------------------------------
 Center     Atomic      Atomic             Coordinates (Angstroms)
 Number     Number       Type             X           Y           Z
 ---------------------------------------------------------------------
      1          6           0        0.000000    0.000000    0.000000
      2          1           0        0.000000    0.000000    2.190381
      3          1           0        1.078974    0.000000   -0.027386
      4          1           0       -0.539487   -0.934419   -0.027386
      5          1           0       -0.539487    0.934419   -0.027386
      6          1           0        0.000000    0.000000    2.939448
 ---------------------------------------------------------------------
                    Distance matrix (angstroms):
                    1          2          3          4          5
     1  C    0.000000
     2  H    2.190381   0.000000
     3  H    1.079322   2.466308   0.000000
     4  H    1.079322   2.466308   1.868838   0.000000
     5  H    1.079322   2.466308   1.868838   1.868838   0.000000
     6  H    2.939448   0.749067   3.156943   3.156943   3.156943
                    6
     6  H    0.000000
 Symmetry turned off by external request.
 Stoichiometry    CH5(2)
 Framework group  C3V[C3(HHC),3SGV(H)]
 Deg. of freedom     4
 Full point group                 C3V     NOp   6
 Rotational constants (GHZ):    143.5782291     36.6570619     36.6570619
 Leave Link  202 at Wed Nov  3 01:43:40 2010, MaxMem=  786432000 cpu:       0.1
 (Enter /share/apps/G09A02/g09/l301.exe)
 Standard basis: 6-311+G(3df,2p) (5D, 7F)
 Ernie: Thresh=  0.10000D-02 Tol=  0.10000D-05 Strict=F.
 Integral buffers will be    131072 words long.
 Raffenetti 2 integral format.
 Two-electron integral symmetry is turned off.
    84 basis functions,   113 primitive gaussians,    90 cartesian basis functions
     6 alpha electrons        5 beta electrons
       nuclear repulsion energy        14.0573469975 Hartrees.
 IExCor=10402 DFT=T Ex=LC-B+HF Corr=LYP ExCW=0 ScaHFX=  1.000000
 ScaDFX=  1.000000  1.000000  1.000000  1.000000 ScalE2=  1.000000  1.000000
 IRadAn=      0 IRanWt=     -1 IRanGd=            0 ICorTp=0
  HFx wShort=  0.000000 wLong=  0.470000 cFull=  0.000000 cShort=  0.000000 cLong=  1.000000
  DFx wShort=  0.000000 wLong=  0.470000 cFull=  0.000000 cShort=  0.000000 cLong=  1.000000
 NAtoms=    6 NActive=    6 NUniq=    6 SFac= 7.50D-01 NAtFMM=   80 NAOKFM=F Big=F
 Leave Link  301 at Wed Nov  3 01:43:41 2010, MaxMem=  786432000 cpu:       0.7
 (Enter /share/apps/G09A02/g09/l302.exe)
 NPDir=0 NMtPBC=     1 NCelOv=     1 NCel=       1 NClECP=     1 NCelD=      1
         NCelK=      1 NCelE2=     1 NClLst=     1 CellRange=     0.0.
 One-electron integrals computed using PRISM.
 NBasis=    84 RedAO= T  NBF=    84
 NBsUse=    84 1.00D-06 NBFU=    84
 Precomputing XC quadrature grid using
 IXCGrd= 2 IRadAn=           0 IRanWt=          -1 IRanGd=           0 AccXCQ= 1.00D-10.
 NRdTot=     383 NPtTot=       48302 NUsed=       51074 NTot=       51106
 NSgBfM=    90    90    90    90    90 NAtAll=     6     6.
 Leave Link  302 at Wed Nov  3 01:43:41 2010, MaxMem=  786432000 cpu:       2.5
 (Enter /share/apps/G09A02/g09/l303.exe)
 DipDrv:  MaxL=1.
 Leave Link  303 at Wed Nov  3 01:43:41 2010, MaxMem=  786432000 cpu:       0.9
 (Enter /share/apps/G09A02/g09/l401.exe)
 Harris functional with IExCor=10402 diagonalized for initial guess.
 ExpMin= 4.38D-02 ExpMax= 4.56D+03 ExpMxC= 6.82D+02 IAcc=2 IRadAn=         0 AccDes= 0.00D+00
 HarFok:  IExCor=10402 AccDes= 0.00D+00 IRadAn=         0 IDoV= 1
 ScaDFX=  1.000000  1.000000  1.000000  1.000000
 FoFCou: FMM=F IPFlag=           0 FMFlag=      100000 FMFlg1=           0
         NFxFlg=           0 DoJE=T BraDBF=F KetDBF=T FulRan=T
         Omega=  0.000000  0.000000  1.000000  0.000000  0.000000 ICntrl=     500 IOpCl=  0
         NMat0=    1 NMatS0=    1 NMatT0=    0 NMatD0=    1 NMtDS0=    0 NMtDT0=    0
         I1Cent=           4 NGrid=           0.
 Symmetry not used in FoFCou.
 Harris En= -38.5332080153490    
 Initial guess <Sx>= 0.0000 <Sy>= 0.0000 <Sz>= 0.5000 <S**2>= 0.7500 S= 0.5000
 Leave Link  401 at Wed Nov  3 01:43:42 2010, MaxMem=  786432000 cpu:       3.7
 (Enter /share/apps/G09A02/g09/l502.exe)
 UHF open shell SCF:
 Requested convergence on RMS density matrix=1.00D-08 within 128 cycles.
 Requested convergence on MAX density matrix=1.00D-06.
 Requested convergence on             energy=1.00D-06.
 No special actions if energy rises.
 Using DIIS extrapolation, IDIIS=  1040.
 Two-electron integral symmetry not used.
        51007 words used for storage of precomputed grid.
 IEnd=       94725 IEndB=       94725 NGot=   786432000 MDV=   786362106
 LenX=   786362106 LenY=   786353565
 Fock matrices will be formed incrementally for  20 cycles.

 Cycle   1  Pass 1  IDiag  1:
 FoFJK:  IHMeth= 1 ICntrl=     0 DoSepK=T KAlg= 1 I1Cent= 0 FoldK=F
 FoFCou: FMM=F IPFlag=           0 FMFlag=      100000 FMFlg1=           0
         NFxFlg=           0 DoJE=T BraDBF=F KetDBF=F FulRan=T
         Omega=  0.000000  0.000000  1.000000  0.000000  0.000000 ICntrl=     500 IOpCl=  0
         NMat0=    1 NMatS0=    1 NMatT0=    0 NMatD0=    1 NMtDS0=    0 NMtDT0=    0
         I1Cent=           0 NGrid=           0.
 Symmetry not used in FoFCou.
 E= -40.8523478598771    
 DIIS: error= 1.83D-02 at cycle   1 NSaved=   1.
 NSaved= 1 IEnMin= 1 EnMin= -40.8523478598771     IErMin= 1 ErrMin= 1.83D-02
 ErrMax= 1.83D-02 EMaxC= 1.00D-01 BMatC= 6.59D-02 BMatP= 6.59D-02
 IDIUse=3 WtCom= 8.17D-01 WtEn= 1.83D-01
 Coeff-Com:  0.100D+01
 Coeff-En:   0.100D+01
 Coeff:      0.100D+01
 Gap=     0.383 Goal=   None    Shift=    0.000
 Gap=     0.613 Goal=   None    Shift=    0.000
 GapD=    0.383 DampG=1.000 DampE=0.500 DampFc=0.5000 IDamp=-1.
 Damping current iteration by 5.00D-01
 RMSDP=1.73D-03 MaxDP=6.66D-02              OVMax= 5.50D-02

 Cycle   2  Pass 1  IDiag  1:
 RMSU=  6.67D-04    CP:  9.77D-01
 FoFJK:  IHMeth= 1 ICntrl=     0 DoSepK=T KAlg= 1 I1Cent= 0 FoldK=F
 E= -40.8619863222008     Delta-E=       -0.009638462324 Rises=F Damp=T
 DIIS: error= 8.13D-03 at cycle   2 NSaved=   2.
 NSaved= 2 IEnMin= 2 EnMin= -40.8619863222008     IErMin= 2 ErrMin= 8.13D-03
 ErrMax= 8.13D-03 EMaxC= 1.00D-01 BMatC= 1.02D-02 BMatP= 6.59D-02
 IDIUse=3 WtCom= 9.19D-01 WtEn= 8.13D-02
 Coeff-Com: -0.404D+00 0.140D+01
 Coeff-En:   0.000D+00 0.100D+01
 Coeff:     -0.372D+00 0.137D+01
 Gap=     0.426 Goal=   None    Shift=    0.000
 Gap=     0.568 Goal=   None    Shift=    0.000
 RMSDP=1.11D-03 MaxDP=2.74D-02 DE=-9.64D-03 OVMax= 4.39D-02

 Cycle   3  Pass 1  IDiag  1:
 RMSU=  6.05D-04    CP:  9.62D-01  2.06D+00
 FoFJK:  IHMeth= 1 ICntrl=     0 DoSepK=T KAlg= 1 I1Cent= 0 FoldK=F
 E= -40.8727133763321     Delta-E=       -0.010727054131 Rises=F Damp=F
 DIIS: error= 2.57D-03 at cycle   3 NSaved=   3.
 NSaved= 3 IEnMin= 3 EnMin= -40.8727133763321     IErMin= 3 ErrMin= 2.57D-03
 ErrMax= 2.57D-03 EMaxC= 1.00D-01 BMatC= 7.67D-04 BMatP= 1.02D-02
 IDIUse=3 WtCom= 9.74D-01 WtEn= 2.57D-02
 Coeff-Com: -0.545D-01-0.957D-01 0.115D+01
 Coeff-En:   0.000D+00 0.000D+00 0.100D+01
 Coeff:     -0.531D-01-0.933D-01 0.115D+01
 Gap=     0.428 Goal=   None    Shift=    0.000
 Gap=     0.570 Goal=   None    Shift=    0.000
 RMSDP=3.62D-04 MaxDP=8.75D-03 DE=-1.07D-02 OVMax= 2.17D-02

 Cycle   4  Pass 1  IDiag  1:
 RMSU=  8.99D-05    CP:  9.57D-01  2.38D+00  1.33D+00
 FoFJK:  IHMeth= 1 ICntrl=     0 DoSepK=T KAlg= 1 I1Cent= 0 FoldK=F
 E= -40.8733006854534     Delta-E=       -0.000587309121 Rises=F Damp=F
 DIIS: error= 1.02D-03 at cycle   4 NSaved=   4.
 NSaved= 4 IEnMin= 4 EnMin= -40.8733006854534     IErMin= 4 ErrMin= 1.02D-03
 ErrMax= 1.02D-03 EMaxC= 1.00D-01 BMatC= 5.96D-05 BMatP= 7.67D-04
 IDIUse=3 WtCom= 9.90D-01 WtEn= 1.02D-02
 Coeff-Com:  0.251D-01-0.418D-01-0.323D+00 0.134D+01
 Coeff-En:   0.000D+00 0.000D+00 0.000D+00 0.100D+01
 Coeff:      0.248D-01-0.414D-01-0.319D+00 0.134D+01
 Gap=     0.430 Goal=   None    Shift=    0.000
 Gap=     0.567 Goal=   None    Shift=    0.000
 RMSDP=1.28D-04 MaxDP=3.49D-03 DE=-5.87D-04 OVMax= 9.25D-03

 Cycle   5  Pass 1  IDiag  1:
 RMSU=  1.88D-05    CP:  9.55D-01  2.46D+00  1.44D+00  1.59D+00
 FoFJK:  IHMeth= 1 ICntrl=     0 DoSepK=T KAlg= 1 I1Cent= 0 FoldK=F
 E= -40.8733655651494     Delta-E=       -0.000064879696 Rises=F Damp=F
 DIIS: error= 2.22D-04 at cycle   5 NSaved=   5.
 NSaved= 5 IEnMin= 5 EnMin= -40.8733655651494     IErMin= 5 ErrMin= 2.22D-04
 ErrMax= 2.22D-04 EMaxC= 1.00D-01 BMatC= 4.19D-06 BMatP= 5.96D-05
 IDIUse=3 WtCom= 9.98D-01 WtEn= 2.22D-03
 Coeff-Com: -0.352D-02 0.183D-01 0.411D-01-0.455D+00 0.140D+01
 Coeff-En:   0.000D+00 0.000D+00 0.000D+00 0.000D+00 0.100D+01
 Coeff:     -0.351D-02 0.183D-01 0.410D-01-0.454D+00 0.140D+01
 Gap=     0.430 Goal=   None    Shift=    0.000
 Gap=     0.567 Goal=   None    Shift=    0.000
 RMSDP=2.57D-05 MaxDP=7.07D-04 DE=-6.49D-05 OVMax= 1.70D-03

 Cycle   6  Pass 1  IDiag  1:
 RMSU=  5.34D-06    CP:  9.55D-01  2.46D+00  1.45D+00  1.75D+00  1.66D+00
 FoFJK:  IHMeth= 1 ICntrl=     0 DoSepK=T KAlg= 1 I1Cent= 0 FoldK=F
 E= -40.8733694924010     Delta-E=       -0.000003927252 Rises=F Damp=F
 DIIS: error= 4.03D-05 at cycle   6 NSaved=   6.
 NSaved= 6 IEnMin= 6 EnMin= -40.8733694924010     IErMin= 6 ErrMin= 4.03D-05
 ErrMax= 4.03D-05 EMaxC= 1.00D-01 BMatC= 2.98D-07 BMatP= 4.19D-06
 IDIUse=1 WtCom= 1.00D+00 WtEn= 0.00D+00
 Coeff-Com: -0.151D-02 0.104D-02 0.146D-01-0.228D-01-0.212D+00 0.122D+01
 Coeff:     -0.151D-02 0.104D-02 0.146D-01-0.228D-01-0.212D+00 0.122D+01
 Gap=     0.430 Goal=   None    Shift=    0.000
 Gap=     0.567 Goal=   None    Shift=    0.000
 RMSDP=5.76D-06 MaxDP=1.07D-04 DE=-3.93D-06 OVMax= 2.50D-04

 Cycle   7  Pass 1  IDiag  1:
 RMSU=  1.98D-06    CP:  9.55D-01  2.46D+00  1.45D+00  1.77D+00  1.80D+00
                    CP:  1.54D+00
 FoFJK:  IHMeth= 1 ICntrl=     0 DoSepK=T KAlg= 1 I1Cent= 0 FoldK=F
 E= -40.8733697473009     Delta-E=       -0.000000254900 Rises=F Damp=F
 DIIS: error= 1.18D-05 at cycle   7 NSaved=   7.
 NSaved= 7 IEnMin= 7 EnMin= -40.8733697473009     IErMin= 7 ErrMin= 1.18D-05
 ErrMax= 1.18D-05 EMaxC= 1.00D-01 BMatC= 2.89D-08 BMatP= 2.98D-07
 IDIUse=1 WtCom= 1.00D+00 WtEn= 0.00D+00
 Coeff-Com:  0.603D-03-0.207D-02-0.665D-02 0.506D-01-0.981D-01-0.282D+00
 Coeff-Com:  0.134D+01
 Coeff:      0.603D-03-0.207D-02-0.665D-02 0.506D-01-0.981D-01-0.282D+00
 Coeff:      0.134D+01
 Gap=     0.430 Goal=   None    Shift=    0.000
 Gap=     0.567 Goal=   None    Shift=    0.000
 RMSDP=2.28D-06 MaxDP=4.03D-05 DE=-2.55D-07 OVMax= 9.94D-05

 Cycle   8  Pass 1  IDiag  1:
 RMSU=  3.90D-07    CP:  9.55D-01  2.46D+00  1.45D+00  1.77D+00  1.83D+00
                    CP:  1.81D+00  1.57D+00
 FoFJK:  IHMeth= 1 ICntrl=     0 DoSepK=T KAlg= 1 I1Cent= 0 FoldK=F
 E= -40.8733697750565     Delta-E=       -0.000000027756 Rises=F Damp=F
 DIIS: error= 3.21D-06 at cycle   8 NSaved=   8.
 NSaved= 8 IEnMin= 8 EnMin= -40.8733697750565     IErMin= 8 ErrMin= 3.21D-06
 ErrMax= 3.21D-06 EMaxC= 1.00D-01 BMatC= 1.15D-09 BMatP= 2.89D-08
 IDIUse=1 WtCom= 1.00D+00 WtEn= 0.00D+00
 Coeff-Com:  0.591D-05 0.319D-03 0.104D-02-0.114D-01 0.362D-01 0.211D-02
 Coeff-Com: -0.326D+00 0.130D+01
 Coeff:      0.591D-05 0.319D-03 0.104D-02-0.114D-01 0.362D-01 0.211D-02
 Coeff:     -0.326D+00 0.130D+01
 Gap=     0.430 Goal=   None    Shift=    0.000
 Gap=     0.567 Goal=   None    Shift=    0.000
 RMSDP=4.45D-07 MaxDP=1.08D-05 DE=-2.78D-08 OVMax= 2.14D-05

 Cycle   9  Pass 1  IDiag  1:
 RMSU=  8.74D-08    CP:  9.55D-01  2.46D+00  1.45D+00  1.77D+00  1.83D+00
                    CP:  1.84D+00  1.70D+00  1.52D+00
 FoFJK:  IHMeth= 1 ICntrl=     0 DoSepK=T KAlg= 1 I1Cent= 0 FoldK=F
 E= -40.8733697760604     Delta-E=       -0.000000001004 Rises=F Damp=F
 DIIS: error= 9.93D-07 at cycle   9 NSaved=   9.
 NSaved= 9 IEnMin= 9 EnMin= -40.8733697760604     IErMin= 9 ErrMin= 9.93D-07
 ErrMax= 9.93D-07 EMaxC= 1.00D-01 BMatC= 7.16D-11 BMatP= 1.15D-09
 IDIUse=1 WtCom= 1.00D+00 WtEn= 0.00D+00
 Coeff-Com: -0.360D-04-0.451D-04-0.228D-03 0.309D-02-0.123D-01 0.118D-01
 Coeff-Com:  0.824D-01-0.527D+00 0.144D+01
 Coeff:     -0.360D-04-0.451D-04-0.228D-03 0.309D-02-0.123D-01 0.118D-01
 Coeff:      0.824D-01-0.527D+00 0.144D+01
 Gap=     0.430 Goal=   None    Shift=    0.000
 Gap=     0.567 Goal=   None    Shift=    0.000
 RMSDP=1.15D-07 MaxDP=2.57D-06 DE=-1.00D-09 OVMax= 8.32D-06

 Cycle  10  Pass 1  IDiag  1:
 RMSU=  3.91D-08    CP:  9.55D-01  2.46D+00  1.45D+00  1.77D+00  1.83D+00
                    CP:  1.84D+00  1.70D+00  1.62D+00  1.68D+00
 FoFJK:  IHMeth= 1 ICntrl=     0 DoSepK=T KAlg= 1 I1Cent= 0 FoldK=F
 E= -40.8733697761496     Delta-E=       -0.000000000089 Rises=F Damp=F
 DIIS: error= 4.10D-07 at cycle  10 NSaved=  10.
 NSaved=10 IEnMin=10 EnMin= -40.8733697761496     IErMin=10 ErrMin= 4.10D-07
 ErrMax= 4.10D-07 EMaxC= 1.00D-01 BMatC= 1.01D-11 BMatP= 7.16D-11
 IDIUse=1 WtCom= 1.00D+00 WtEn= 0.00D+00
 Coeff-Com:  0.246D-04-0.273D-05 0.553D-04-0.882D-03 0.449D-02-0.835D-02
 Coeff-Com: -0.211D-01 0.207D+00-0.900D+00 0.172D+01
 Coeff:      0.246D-04-0.273D-05 0.553D-04-0.882D-03 0.449D-02-0.835D-02
 Coeff:     -0.211D-01 0.207D+00-0.900D+00 0.172D+01
 Gap=     0.430 Goal=   None    Shift=    0.000
 Gap=     0.567 Goal=   None    Shift=    0.000
 RMSDP=5.48D-08 MaxDP=1.39D-06 DE=-8.93D-11 OVMax= 3.43D-06

 Cycle  11  Pass 1  IDiag  1:
 RMSU=  1.19D-08    CP:  9.55D-01  2.46D+00  1.45D+00  1.77D+00  1.83D+00
                    CP:  1.83D+00  1.70D+00  1.62D+00  1.97D+00  1.76D+00
 FoFJK:  IHMeth= 1 ICntrl=     0 DoSepK=T KAlg= 1 I1Cent= 0 FoldK=F
 E= -40.8733697761646     Delta-E=       -0.000000000015 Rises=F Damp=F
 DIIS: error= 1.01D-07 at cycle  11 NSaved=  11.
 NSaved=11 IEnMin=11 EnMin= -40.8733697761646     IErMin=11 ErrMin= 1.01D-07
 ErrMax= 1.01D-07 EMaxC= 1.00D-01 BMatC= 6.15D-13 BMatP= 1.01D-11
 IDIUse=1 WtCom= 1.00D+00 WtEn= 0.00D+00
 Coeff-Com: -0.405D-05 0.710D-05 0.494D-05-0.883D-04 0.105D-03 0.125D-02
 Coeff-Com: -0.501D-02 0.699D-02 0.931D-01-0.460D+00 0.136D+01
 Coeff:     -0.405D-05 0.710D-05 0.494D-05-0.883D-04 0.105D-03 0.125D-02
 Coeff:     -0.501D-02 0.699D-02 0.931D-01-0.460D+00 0.136D+01
 Gap=     0.430 Goal=   None    Shift=    0.000
 Gap=     0.567 Goal=   None    Shift=    0.000
 RMSDP=1.12D-08 MaxDP=3.50D-07 DE=-1.50D-11 OVMax= 7.11D-07

 Cycle  12  Pass 1  IDiag  1:
 RMSU=  1.86D-09    CP:  9.55D-01  2.46D+00  1.45D+00  1.77D+00  1.83D+00
                    CP:  1.83D+00  1.70D+00  1.62D+00  2.00D+00  1.90D+00
                    CP:  1.45D+00
 FoFJK:  IHMeth= 1 ICntrl=     0 DoSepK=T KAlg= 1 I1Cent= 0 FoldK=F
 E= -40.8733697761642     Delta-E=        0.000000000000 Rises=F Damp=F
 DIIS: error= 1.30D-08 at cycle  12 NSaved=  12.
 NSaved=12 IEnMin=11 EnMin= -40.8733697761646     IErMin=12 ErrMin= 1.30D-08
 ErrMax= 1.30D-08 EMaxC= 1.00D-01 BMatC= 1.49D-14 BMatP= 6.15D-13
 IDIUse=1 WtCom= 1.00D+00 WtEn= 0.00D+00
 Coeff-Com:  0.150D-06-0.108D-05-0.737D-06 0.309D-04-0.110D-03-0.120D-03
 Coeff-Com:  0.183D-02-0.763D-02 0.643D-02 0.545D-01-0.350D+00 0.130D+01
 Coeff:      0.150D-06-0.108D-05-0.737D-06 0.309D-04-0.110D-03-0.120D-03
 Coeff:      0.183D-02-0.763D-02 0.643D-02 0.545D-01-0.350D+00 0.130D+01
 Gap=     0.430 Goal=   None    Shift=    0.000
 Gap=     0.567 Goal=   None    Shift=    0.000
 RMSDP=1.61D-09 MaxDP=4.44D-08 DE= 4.12D-13 OVMax= 8.83D-08

 SCF Done:  E(ULC-B+HF-LYP) =  -40.8733697762     A.U. after   12 cycles
             Convg  =    0.1612D-08             -V/T =  2.0044
 <Sx>= 0.0000 <Sy>= 0.0000 <Sz>= 0.5000 <S**2>= 0.7542 S= 0.5021
 <L.S>= 0.000000000000E+00
 KE= 4.069370338531D+01 PE=-1.221756497552D+02 EE= 2.655122959616D+01
 Annihilation of the first spin contaminant:
 S**2 before annihilation     0.7542,   after     0.7500
 Leave Link  502 at Wed Nov  3 01:44:17 2010, MaxMem=  786432000 cpu:     280.7
 (Enter /share/apps/G09A02/g09/l601.exe)
 Copying SCF densities to generalized density rwf, IOpCl= 1 IROHF=0.

 **********************************************************************

            Population analysis using the SCF density.

 **********************************************************************

 Alpha  occ. eigenvalues --  -10.14705  -0.85721  -0.56719  -0.56003  -0.56003
 Alpha  occ. eigenvalues --   -0.36073
 Alpha virt. eigenvalues --    0.06960   0.09077   0.09077   0.11734   0.18666
 Alpha virt. eigenvalues --    0.23262   0.23262   0.25005   0.37348   0.37348
 Alpha virt. eigenvalues --    0.39933   0.40220   0.40220   0.49306   0.59262
 Alpha virt. eigenvalues --    0.63313   0.63313   0.67550   0.67550   0.68908
 Alpha virt. eigenvalues --    0.76957   0.81476   0.84477   0.84477   0.94665
 Alpha virt. eigenvalues --    1.04446   1.04446   1.13337   1.16224   1.16224
 Alpha virt. eigenvalues --    1.27164   1.27164   1.39138   1.48782   1.48782
 Alpha virt. eigenvalues --    1.52651   1.62379   1.78696   1.78696   2.16063
 Alpha virt. eigenvalues --    2.16063   2.17305   2.51197   2.54587   2.73875
 Alpha virt. eigenvalues --    2.80123   2.80123   2.90999   3.05517   3.13567
 Alpha virt. eigenvalues --    3.13567   3.17233   3.21673   3.21673   3.62166
 Alpha virt. eigenvalues --    3.62166   3.73209   3.73209   4.01187   4.06144
 Alpha virt. eigenvalues --    4.27625   4.27625   4.35599   4.35599   4.43440
 Alpha virt. eigenvalues --    4.43440   4.55619   4.96168   5.37095   5.73916
 Alpha virt. eigenvalues --    5.73916   5.84088   7.15193   7.15194   7.35351
 Alpha virt. eigenvalues --    7.73918   7.73918  24.22809
  Beta  occ. eigenvalues --  -10.13278  -0.81175  -0.55461  -0.54947  -0.54947
  Beta virt. eigenvalues --    0.01784   0.07232   0.08973   0.08973   0.12367
  Beta virt. eigenvalues --    0.20770   0.23520   0.23520   0.26154   0.38465
  Beta virt. eigenvalues --    0.38465   0.40229   0.40229   0.41077   0.50638
  Beta virt. eigenvalues --    0.60886   0.63826   0.63826   0.68212   0.68212
  Beta virt. eigenvalues --    0.70021   0.78430   0.83223   0.84682   0.84682
  Beta virt. eigenvalues --    0.94627   1.05056   1.05056   1.13973   1.16274
  Beta virt. eigenvalues --    1.16274   1.27197   1.27197   1.41365   1.49346
  Beta virt. eigenvalues --    1.49346   1.53587   1.63025   1.83484   1.83484
  Beta virt. eigenvalues --    2.17091   2.17091   2.20983   2.51854   2.54540
  Beta virt. eigenvalues --    2.74465   2.81624   2.81624   2.96186   3.05918
  Beta virt. eigenvalues --    3.16596   3.16596   3.21651   3.24714   3.24714
  Beta virt. eigenvalues --    3.62730   3.62730   3.74095   3.74095   4.01653
  Beta virt. eigenvalues --    4.06662   4.27266   4.27267   4.36317   4.36317
  Beta virt. eigenvalues --    4.43747   4.43747   4.56455   4.96335   5.38025
  Beta virt. eigenvalues --    5.74517   5.74517   5.84678   7.21512   7.21513
  Beta virt. eigenvalues --    7.43320   7.75550   7.75550  24.24683
          Condensed to atoms (all electrons):
              1          2          3          4          5          6
     1  C    5.419338  -0.016212   0.403138   0.403138   0.403138  -0.024228
     2  H   -0.016212   0.570665  -0.001572  -0.001572  -0.001572   0.428456
     3  H    0.403138  -0.001572   0.437667  -0.019154  -0.019154  -0.000539
     4  H    0.403138  -0.001572  -0.019154   0.437663  -0.019153  -0.000539
     5  H    0.403138  -0.001572  -0.019154  -0.019153   0.437663  -0.000539
     6  H   -0.024228   0.428456  -0.000539  -0.000539  -0.000539   0.629727
 Mulliken atomic charges:
              1
     1  C   -0.588313
     2  H    0.021806
     3  H    0.199614
     4  H    0.199616
     5  H    0.199616
     6  H   -0.032339
 Sum of Mulliken atomic charges =   0.00000
 Mulliken charges with hydrogens summed into heavy atoms:
              1
     1  C    0.000000
 Sum of Mulliken charges with hydrogens summed into heavy atoms =   0.00000
          Atomic-Atomic Spin Densities.
              1          2          3          4          5          6
     1  C    1.069365  -0.013141   0.004570   0.004570   0.004570  -0.023755
     2  H   -0.013141  -0.033721   0.000072   0.000072   0.000072   0.011122
     3  H    0.004570   0.000072  -0.033388   0.002731   0.002731  -0.000162
     4  H    0.004570   0.000072   0.002731  -0.033388   0.002731  -0.000162
     5  H    0.004570   0.000072   0.002731   0.002731  -0.033388  -0.000162
     6  H   -0.023755   0.011122  -0.000162  -0.000162  -0.000162   0.072804
 Mulliken atomic spin densities:
              1
     1  C    1.046180
     2  H   -0.035525
     3  H   -0.023446
     4  H   -0.023446
     5  H   -0.023446
     6  H    0.059684
 Sum of Mulliken atomic spin densities =   1.00000
 Electronic spatial extent (au):  <R**2>=             82.9128
 Charge=              0.0000 electrons
 Dipole moment (field-independent basis, Debye):
    X=              0.0000    Y=              0.0000    Z=             -0.1735  Tot=              0.1735
 Quadrupole moment (field-independent basis, Debye-Ang):
   XX=             -9.4106   YY=             -9.4106   ZZ=            -11.3671
   XY=              0.0000   XZ=              0.0000   YZ=              0.0000
 Traceless Quadrupole moment (field-independent basis, Debye-Ang):
   XX=              0.6522   YY=              0.6522   ZZ=             -1.3043
   XY=              0.0000   XZ=              0.0000   YZ=              0.0000
 Octapole moment (field-independent basis, Debye-Ang**2):
  XXX=              0.9877  YYY=              0.0000  ZZZ=            -14.4224  XYY=             -0.9878
  XXY=              0.0000  XXZ=             -5.5446  XZZ=              0.0000  YZZ=              0.0000
  YYZ=             -5.5446  XYZ=              0.0000
 Hexadecapole moment (field-independent basis, Debye-Ang**3):
 XXXX=            -17.4451 YYYY=            -17.4451 ZZZZ=            -87.1689 XXXY=              0.0000
 XXXZ=             -0.0427 YYYX=              0.0000 YYYZ=              0.0000 ZZZX=              0.0000
 ZZZY=              0.0000 XXYY=             -5.8150 XXZZ=            -20.3709 YYZZ=            -20.3709
 XXYZ=              0.0000 YYXZ=              0.0427 ZZXY=              0.0000
 N-N= 1.405734699754D+01 E-N=-1.801047136432D+02  KE= 6.041906777388D+01
                          Isotropic Fermi Contact Couplings
        Atom                 a.u.       MegaHertz       Gauss      10(-4) cm-1
     1  C(13)              0.03196      35.92409      12.81861      11.98299
     2  H(1)              -0.00616     -27.55289      -9.83155      -9.19065
     3  H(1)              -0.01312     -58.66296     -20.93240     -19.56786
     4  H(1)              -0.01312     -58.66335     -20.93254     -19.56799
     5  H(1)              -0.01312     -58.66335     -20.93254     -19.56799
     6  H(1)               0.02201      98.40187      35.11223      32.82333
 --------------------------------------------------------
       Center         ----  Spin Dipole Couplings  ----
                      3XX-RR        3YY-RR        3ZZ-RR
 --------------------------------------------------------
     1   Atom       -0.594440     -0.594441      1.188881
     2   Atom       -0.029464     -0.029464      0.058928
     3   Atom        0.074784     -0.074992      0.000208
     4   Atom       -0.037548      0.037340      0.000208
     5   Atom       -0.037548      0.037340      0.000208
     6   Atom       -0.004914     -0.004914      0.009827
 --------------------------------------------------------
                        XY            XZ            YZ
 --------------------------------------------------------
     1   Atom        0.000000     -0.000001      0.000000
     2   Atom        0.000000      0.000000      0.000000
     3   Atom        0.000000     -0.002961      0.000000
     4   Atom        0.064855      0.001481      0.002565
     5   Atom       -0.064855      0.001481     -0.002565
     6   Atom        0.000000      0.000000      0.000000
 --------------------------------------------------------


 ---------------------------------------------------------------------------------
              Anisotropic Spin Dipole Couplings in Principal Axis System
 ---------------------------------------------------------------------------------

       Atom             a.u.   MegaHertz   Gauss  10(-4) cm-1        Axes

              Baa    -0.5944   -79.768   -28.463   -26.608  0.0000  1.0000  0.0000
     1 C(13)  Bbb    -0.5944   -79.768   -28.463   -26.608  1.0000  0.0000  0.0000
              Bcc     1.1889   159.536    56.927    53.216  0.0000  0.0000  1.0000
 
              Baa    -0.0295   -15.721    -5.610    -5.244  1.0000  0.0000  0.0000
     2 H(1)   Bbb    -0.0295   -15.721    -5.610    -5.244  0.0000  1.0000  0.0000
              Bcc     0.0589    31.441    11.219    10.488  0.0000  0.0000  1.0000
 
              Baa    -0.0750   -40.012   -14.277   -13.347  0.0000  1.0000  0.0000
     3 H(1)   Bbb     0.0001     0.048     0.017     0.016  0.0396  0.0000  0.9992
              Bcc     0.0749    39.964    14.260    13.331  0.9992  0.0000 -0.0396
 
              Baa    -0.0750   -40.012   -14.277   -13.347  0.8660 -0.5000  0.0000
     4 H(1)   Bbb     0.0001     0.048     0.017     0.016 -0.0198 -0.0343  0.9992
              Bcc     0.0749    39.964    14.260    13.331  0.4996  0.8653  0.0396
 
              Baa    -0.0750   -40.012   -14.277   -13.347  0.8660  0.5000  0.0000
     5 H(1)   Bbb     0.0001     0.048     0.017     0.016 -0.0198  0.0343  0.9992
              Bcc     0.0749    39.964    14.260    13.331 -0.4996  0.8653 -0.0396
 
              Baa    -0.0049    -2.622    -0.935    -0.875  1.0000  0.0000  0.0000
     6 H(1)   Bbb    -0.0049    -2.622    -0.935    -0.875  0.0000  1.0000  0.0000
              Bcc     0.0098     5.243     1.871     1.749  0.0000  0.0000  1.0000
 

 ---------------------------------------------------------------------------------

 No NMR shielding tensors so no spin-rotation constants.
 Leave Link  601 at Wed Nov  3 01:44:17 2010, MaxMem=  786432000 cpu:       4.0
 (Enter /share/apps/G09A02/g09/l9999.exe)
 1\1\GINC-COMPUTE-0-7\SP\ULC-BLYP\6-311+G(3df,2p)\C1H5(2)\WENXINZY\03-N
 ov-2010\0\\#p lc-blyp/6-311+g(3df,2p) nosymm scf=tight\\15 H2+CH3\\0,2
 \C\H,1,2.1903812\H,1,1.0793218,2,91.4539429\H,1,1.0793218,2,91.4539429
 ,3,120.,0\H,1,1.0793218,2,91.4539429,3,-120.,0\H,2,0.7490672,1,180.,3,
 0.,0\\Version=EM64L-G09RevA.02\HF=-40.8733698\S2=0.754246\S2-1=0.\S2A=
 0.750012\RMSD=1.612e-09\Dipole=-0.0000011,0.,-0.0682566\Quadrupole=0.4
 848664,0.484867,-0.9697334,0.,-0.0000017,0.\PG=C03V [C3(H1H1C1),3SGV(H
 1)]\\@


 The arm of the moral universe is long, but it bends toward justice.
 -- Martin Luther King, Jr.
 Job cpu time:  0 days  0 hours  4 minutes 55.5 seconds.
 File lengths (MBytes):  RWF=      9 Int=      0 D2E=      0 Chk=      1 Scr=      1
 Normal termination of Gaussian 09 at Wed Nov  3 01:44:17 2010.
