 Entering Gaussian System, Link 0=/share/apps/G09A02/g09/g09
 Input=./.script12553/Job_H_CH4_5.com
 Output=./.script12553/Job_H_CH4_5.log
 Initial command:
 /share/apps/G09A02/g09/l1.exe /state/partition1/wenxinzy/scratch/Gau-13089.inp -scrdir=/state/partition1/wenxinzy/scratch/
 Default is to use a total of   8 processors:
                                8 via shared-memory
                                1 via Linda
 Entering Link 1 = /share/apps/G09A02/g09/l1.exe PID=     13090.
  
 Copyright (c) 1988,1990,1992,1993,1995,1998,2003,2009, Gaussian, Inc.
                  All Rights Reserved.
  
 This is part of the Gaussian(R) 09 program.  It is based on
 the Gaussian(R) 03 system (copyright 2003, Gaussian, Inc.),
 the Gaussian(R) 98 system (copyright 1998, Gaussian, Inc.),
 the Gaussian(R) 94 system (copyright 1995, Gaussian, Inc.),
 the Gaussian 92(TM) system (copyright 1992, Gaussian, Inc.),
 the Gaussian 90(TM) system (copyright 1990, Gaussian, Inc.),
 the Gaussian 88(TM) system (copyright 1988, Gaussian, Inc.),
 the Gaussian 86(TM) system (copyright 1986, Carnegie Mellon
 University), and the Gaussian 82(TM) system (copyright 1983,
 Carnegie Mellon University). Gaussian is a federally registered
 trademark of Gaussian, Inc.
  
 This software contains proprietary and confidential information,
 including trade secrets, belonging to Gaussian, Inc.
  
 This software is provided under written license and may be
 used, copied, transmitted, or stored only in accord with that
 written license.
  
 The following legend is applicable only to US Government
 contracts under FAR:
  
                    RESTRICTED RIGHTS LEGEND
  
 Use, reproduction and disclosure by the US Government is
 subject to restrictions as set forth in subparagraphs (a)
 and (c) of the Commercial Computer Software - Restricted
 Rights clause in FAR 52.227-19.
  
 Gaussian, Inc.
 340 Quinnipiac St., Bldg. 40, Wallingford CT 06492
  
  
 ---------------------------------------------------------------
 Warning -- This program may not be used in any manner that
 competes with the business of Gaussian, Inc. or will provide
 assistance to any competitor of Gaussian, Inc.  The licensee
 of this program is prohibited from giving any competitor of
 Gaussian, Inc. access to this program.  By using this program,
 the user acknowledges that Gaussian, Inc. is engaged in the
 business of creating and licensing software in the field of
 computational chemistry and represents and warrants to the
 licensee that it is not a competitor of Gaussian, Inc. and that
 it will not use this program in any manner prohibited above.
 ---------------------------------------------------------------
  

 Cite this work as:
 Gaussian 09, Revision A.02,
 M. J. Frisch, G. W. Trucks, H. B. Schlegel, G. E. Scuseria, 
 M. A. Robb, J. R. Cheeseman, G. Scalmani, V. Barone, B. Mennucci, 
 G. A. Petersson, H. Nakatsuji, M. Caricato, X. Li, H. P. Hratchian, 
 A. F. Izmaylov, J. Bloino, G. Zheng, J. L. Sonnenberg, M. Hada, 
 M. Ehara, K. Toyota, R. Fukuda, J. Hasegawa, M. Ishida, T. Nakajima, 
 Y. Honda, O. Kitao, H. Nakai, T. Vreven, J. A. Montgomery, Jr., 
 J. E. Peralta, F. Ogliaro, M. Bearpark, J. J. Heyd, E. Brothers, 
 K. N. Kudin, V. N. Staroverov, R. Kobayashi, J. Normand, 
 K. Raghavachari, A. Rendell, J. C. Burant, S. S. Iyengar, J. Tomasi, 
 M. Cossi, N. Rega, J. M. Millam, M. Klene, J. E. Knox, J. B. Cross, 
 V. Bakken, C. Adamo, J. Jaramillo, R. Gomperts, R. E. Stratmann, 
 O. Yazyev, A. J. Austin, R. Cammi, C. Pomelli, J. W. Ochterski, 
 R. L. Martin, K. Morokuma, V. G. Zakrzewski, G. A. Voth, 
 P. Salvador, J. J. Dannenberg, S. Dapprich, A. D. Daniels, 
 O. Farkas, J. B. Foresman, J. V. Ortiz, J. Cioslowski, 
 and D. J. Fox, Gaussian, Inc., Wallingford CT, 2009.
 
 ******************************************
 Gaussian 09:  EM64L-G09RevA.02 11-Jun-2009
                 3-Nov-2010 
 ******************************************
 %chk=/state/partition1/wenxinzy/scratch/H_CH4_5.chk
 %nproc=8
 Will use up to    8 processors via shared memory.
 %mem=6000mb
 -------------------------------------------
 #p lc-blyp/6-311+g(3df,2p) nosymm scf=tight
 -------------------------------------------
 1/38=1/1;
 2/12=2,15=1,17=6,18=5,40=1/2;
 3/5=4,6=6,7=216,11=2,16=1,25=1,30=1,74=1000402/1,2,3;
 4//1;
 5/5=2,32=2,38=5/2;
 6/7=2,8=2,9=2,10=2,28=1/1;
 99/5=1,9=1/99;
 Leave Link    1 at Wed Nov  3 01:10:18 2010, MaxMem=  786432000 cpu:       0.4
 (Enter /share/apps/G09A02/g09/l101.exe)
 -------
 6 H_CH4
 -------
 Symbolic Z-matrix:
 Charge =  0 Multiplicity = 2
 C
 H1                   C    R1
 H2                   C    R2       H1   A1
 H3                   C    R2       H1   A1       H2    120.     0
 H4                   C    R2       H1   A1       H2   -120.     0
 H5                   H1   R3       C     180.     H2    0.       0
       Variables:
  R1                    1.18559                  
  R2                    1.08819                  
  A1                  107.18946                  
  R3                    1.08936                  
 
 NAtoms=      6 NQM=      6 NQMF=      0 NMic=      0 NMicF=      0 NTot=      6.
                    Isotopes and Nuclear Properties:
 (Nuclear quadrupole moments (NQMom) in fm**2, nuclear magnetic moments (NMagM)
  in nuclear magnetons)

  Atom         1           2           3           4           5           6
 IAtWgt=          12           1           1           1           1           1
 AtmWgt=  12.0000000   1.0078250   1.0078250   1.0078250   1.0078250   1.0078250
 NucSpn=           0           1           1           1           1           1
 AtZEff=   0.0000000   0.0000000   0.0000000   0.0000000   0.0000000   0.0000000
 NQMom=    0.0000000   0.0000000   0.0000000   0.0000000   0.0000000   0.0000000
 NMagM=    0.0000000   2.7928460   2.7928460   2.7928460   2.7928460   2.7928460
 Leave Link  101 at Wed Nov  3 01:10:18 2010, MaxMem=  786432000 cpu:       1.0
 (Enter /share/apps/G09A02/g09/l202.exe)
                          Input orientation:                          
 ---------------------------------------------------------------------
 Center     Atomic      Atomic             Coordinates (Angstroms)
 Number     Number       Type             X           Y           Z
 ---------------------------------------------------------------------
      1          6           0        0.000000    0.000000    0.000000
      2          1           0        0.000000    0.000000    1.185588
      3          1           0        1.039580    0.000000   -0.321594
      4          1           0       -0.519790   -0.900303   -0.321594
      5          1           0       -0.519790    0.900303   -0.321594
      6          1           0        0.000000    0.000000    2.274950
 ---------------------------------------------------------------------
                    Distance matrix (angstroms):
                    1          2          3          4          5
     1  C    0.000000
     2  H    1.185588   0.000000
     3  H    1.088186   1.830936   0.000000
     4  H    1.088186   1.830936   1.800605   0.000000
     5  H    1.088186   1.830936   1.800605   1.800605   0.000000
     6  H    2.274950   1.089362   2.796921   2.796921   2.796921
                    6
     6  H    0.000000
 Symmetry turned off by external request.
 Stoichiometry    CH5(2)
 Framework group  C3V[C3(HHC),3SGV(H)]
 Deg. of freedom     4
 Full point group                 C3V     NOp   6
 Rotational constants (GHZ):    154.6661036     61.5738868     61.5738868
 Leave Link  202 at Wed Nov  3 01:10:18 2010, MaxMem=  786432000 cpu:       0.0
 (Enter /share/apps/G09A02/g09/l301.exe)
 Standard basis: 6-311+G(3df,2p) (5D, 7F)
 Ernie: Thresh=  0.10000D-02 Tol=  0.10000D-05 Strict=F.
 Integral buffers will be    131072 words long.
 Raffenetti 2 integral format.
 Two-electron integral symmetry is turned off.
    84 basis functions,   113 primitive gaussians,    90 cartesian basis functions
     6 alpha electrons        5 beta electrons
       nuclear repulsion energy        15.6290778256 Hartrees.
 IExCor=10402 DFT=T Ex=LC-B+HF Corr=LYP ExCW=0 ScaHFX=  1.000000
 ScaDFX=  1.000000  1.000000  1.000000  1.000000 ScalE2=  1.000000  1.000000
 IRadAn=      0 IRanWt=     -1 IRanGd=            0 ICorTp=0
  HFx wShort=  0.000000 wLong=  0.470000 cFull=  0.000000 cShort=  0.000000 cLong=  1.000000
  DFx wShort=  0.000000 wLong=  0.470000 cFull=  0.000000 cShort=  0.000000 cLong=  1.000000
 NAtoms=    6 NActive=    6 NUniq=    6 SFac= 7.50D-01 NAtFMM=   80 NAOKFM=F Big=F
 Leave Link  301 at Wed Nov  3 01:10:18 2010, MaxMem=  786432000 cpu:       0.7
 (Enter /share/apps/G09A02/g09/l302.exe)
 NPDir=0 NMtPBC=     1 NCelOv=     1 NCel=       1 NClECP=     1 NCelD=      1
         NCelK=      1 NCelE2=     1 NClLst=     1 CellRange=     0.0.
 One-electron integrals computed using PRISM.
 NBasis=    84 RedAO= T  NBF=    84
 NBsUse=    84 1.00D-06 NBFU=    84
 Precomputing XC quadrature grid using
 IXCGrd= 2 IRadAn=           0 IRanWt=          -1 IRanGd=           0 AccXCQ= 1.00D-10.
 NRdTot=     383 NPtTot=       48740 NUsed=       51512 NTot=       51544
 NSgBfM=    90    90    90    90    90 NAtAll=     6     6.
 Leave Link  302 at Wed Nov  3 01:10:19 2010, MaxMem=  786432000 cpu:       2.6
 (Enter /share/apps/G09A02/g09/l303.exe)
 DipDrv:  MaxL=1.
 Leave Link  303 at Wed Nov  3 01:10:19 2010, MaxMem=  786432000 cpu:       0.9
 (Enter /share/apps/G09A02/g09/l401.exe)
 Harris functional with IExCor=10402 diagonalized for initial guess.
 ExpMin= 4.38D-02 ExpMax= 4.56D+03 ExpMxC= 6.82D+02 IAcc=2 IRadAn=         0 AccDes= 0.00D+00
 HarFok:  IExCor=10402 AccDes= 0.00D+00 IRadAn=         0 IDoV= 1
 ScaDFX=  1.000000  1.000000  1.000000  1.000000
 FoFCou: FMM=F IPFlag=           0 FMFlag=      100000 FMFlg1=           0
         NFxFlg=           0 DoJE=T BraDBF=F KetDBF=T FulRan=T
         Omega=  0.000000  0.000000  1.000000  0.000000  0.000000 ICntrl=     500 IOpCl=  0
         NMat0=    1 NMatS0=    1 NMatT0=    0 NMatD0=    1 NMtDS0=    0 NMtDT0=    0
         I1Cent=           4 NGrid=           0.
 Symmetry not used in FoFCou.
 Harris En= -38.5441913239809    
 Initial guess <Sx>= 0.0000 <Sy>= 0.0000 <Sz>= 0.5000 <S**2>= 0.7500 S= 0.5000
 Leave Link  401 at Wed Nov  3 01:10:20 2010, MaxMem=  786432000 cpu:       3.7
 (Enter /share/apps/G09A02/g09/l502.exe)
 UHF open shell SCF:
 Requested convergence on RMS density matrix=1.00D-08 within 128 cycles.
 Requested convergence on MAX density matrix=1.00D-06.
 Requested convergence on             energy=1.00D-06.
 No special actions if energy rises.
 Using DIIS extrapolation, IDIIS=  1040.
 Two-electron integral symmetry not used.
        51445 words used for storage of precomputed grid.
 IEnd=       95163 IEndB=       95163 NGot=   786432000 MDV=   786361668
 LenX=   786361668 LenY=   786353127
 Fock matrices will be formed incrementally for  20 cycles.

 Cycle   1  Pass 1  IDiag  1:
 FoFJK:  IHMeth= 1 ICntrl=     0 DoSepK=T KAlg= 1 I1Cent= 0 FoldK=F
 FoFCou: FMM=F IPFlag=           0 FMFlag=      100000 FMFlg1=           0
         NFxFlg=           0 DoJE=T BraDBF=F KetDBF=F FulRan=T
         Omega=  0.000000  0.000000  1.000000  0.000000  0.000000 ICntrl=     500 IOpCl=  0
         NMat0=    1 NMatS0=    1 NMatT0=    0 NMatD0=    1 NMtDS0=    0 NMtDT0=    0
         I1Cent=           0 NGrid=           0.
 Symmetry not used in FoFCou.
 E= -40.8062661590334    
 DIIS: error= 2.83D-02 at cycle   1 NSaved=   1.
 NSaved= 1 IEnMin= 1 EnMin= -40.8062661590334     IErMin= 1 ErrMin= 2.83D-02
 ErrMax= 2.83D-02 EMaxC= 1.00D-01 BMatC= 1.97D-01 BMatP= 1.97D-01
 IDIUse=3 WtCom= 7.17D-01 WtEn= 2.83D-01
 Coeff-Com:  0.100D+01
 Coeff-En:   0.100D+01
 Coeff:      0.100D+01
 Gap=     0.414 Goal=   None    Shift=    0.000
 Gap=     0.450 Goal=   None    Shift=    0.000
 GapD=    0.414 DampG=2.000 DampE=0.500 DampFc=1.0000 IDamp=-1.
 RMSDP=6.13D-03 MaxDP=2.15D-01              OVMax= 1.47D-01

 Cycle   2  Pass 1  IDiag  1:
 RMSU=  4.36D-03    CP:  7.42D-01
 FoFJK:  IHMeth= 1 ICntrl=     0 DoSepK=T KAlg= 1 I1Cent= 0 FoldK=F
 E= -40.8450673226195     Delta-E=       -0.038801163586 Rises=F Damp=F
 DIIS: error= 2.12D-02 at cycle   2 NSaved=   2.
 NSaved= 2 IEnMin= 2 EnMin= -40.8450673226195     IErMin= 2 ErrMin= 2.12D-02
 ErrMax= 2.12D-02 EMaxC= 1.00D-01 BMatC= 8.77D-02 BMatP= 1.97D-01
 IDIUse=3 WtCom= 7.88D-01 WtEn= 2.12D-01
 Coeff-Com:  0.392D+00 0.608D+00
 Coeff-En:   0.761D-01 0.924D+00
 Coeff:      0.325D+00 0.675D+00
 Gap=     0.435 Goal=   None    Shift=    0.000
 Gap=     0.540 Goal=   None    Shift=    0.000
 RMSDP=2.26D-03 MaxDP=8.14D-02 DE=-3.88D-02 OVMax= 6.24D-02

 Cycle   3  Pass 1  IDiag  1:
 RMSU=  1.71D-03    CP:  6.83D-01  1.14D+00
 FoFJK:  IHMeth= 1 ICntrl=     0 DoSepK=T KAlg= 1 I1Cent= 0 FoldK=F
 E= -40.8671765901754     Delta-E=       -0.022109267556 Rises=F Damp=F
 DIIS: error= 3.91D-03 at cycle   3 NSaved=   3.
 NSaved= 3 IEnMin= 3 EnMin= -40.8671765901754     IErMin= 3 ErrMin= 3.91D-03
 ErrMax= 3.91D-03 EMaxC= 1.00D-01 BMatC= 3.37D-03 BMatP= 8.77D-02
 IDIUse=3 WtCom= 9.61D-01 WtEn= 3.91D-02
 Coeff-Com: -0.101D+00 0.345D-01 0.107D+01
 Coeff-En:   0.000D+00 0.000D+00 0.100D+01
 Coeff:     -0.966D-01 0.332D-01 0.106D+01
 Gap=     0.424 Goal=   None    Shift=    0.000
 Gap=     0.536 Goal=   None    Shift=    0.000
 RMSDP=1.08D-03 MaxDP=3.87D-02 DE=-2.21D-02 OVMax= 3.04D-02

 Cycle   4  Pass 1  IDiag  1:
 RMSU=  4.31D-04    CP:  6.39D-01  1.27D+00  1.21D+00
 FoFJK:  IHMeth= 1 ICntrl=     0 DoSepK=T KAlg= 1 I1Cent= 0 FoldK=F
 E= -40.8686450073393     Delta-E=       -0.001468417164 Rises=F Damp=F
 DIIS: error= 1.04D-03 at cycle   4 NSaved=   4.
 NSaved= 4 IEnMin= 4 EnMin= -40.8686450073393     IErMin= 4 ErrMin= 1.04D-03
 ErrMax= 1.04D-03 EMaxC= 1.00D-01 BMatC= 1.24D-04 BMatP= 3.37D-03
 IDIUse=3 WtCom= 9.90D-01 WtEn= 1.04D-02
 Coeff-Com: -0.112D-01-0.445D-01-0.204D+00 0.126D+01
 Coeff-En:   0.000D+00 0.000D+00 0.000D+00 0.100D+01
 Coeff:     -0.111D-01-0.440D-01-0.201D+00 0.126D+01
 Gap=     0.428 Goal=   None    Shift=    0.000
 Gap=     0.537 Goal=   None    Shift=    0.000
 RMSDP=3.71D-04 MaxDP=1.31D-02 DE=-1.47D-03 OVMax= 1.30D-02

 Cycle   5  Pass 1  IDiag  1:
 RMSU=  4.74D-05    CP:  6.25D-01  1.30D+00  1.30D+00  1.40D+00
 FoFJK:  IHMeth= 1 ICntrl=     0 DoSepK=T KAlg= 1 I1Cent= 0 FoldK=F
 E= -40.8687799883640     Delta-E=       -0.000134981025 Rises=F Damp=F
 DIIS: error= 3.90D-04 at cycle   5 NSaved=   5.
 NSaved= 5 IEnMin= 5 EnMin= -40.8687799883640     IErMin= 5 ErrMin= 3.90D-04
 ErrMax= 3.90D-04 EMaxC= 1.00D-01 BMatC= 9.61D-06 BMatP= 1.24D-04
 IDIUse=3 WtCom= 9.96D-01 WtEn= 3.90D-03
 Coeff-Com:  0.730D-02 0.872D-02-0.250D-02-0.298D+00 0.128D+01
 Coeff-En:   0.000D+00 0.000D+00 0.000D+00 0.000D+00 0.100D+01
 Coeff:      0.727D-02 0.869D-02-0.249D-02-0.297D+00 0.128D+01
 Gap=     0.428 Goal=   None    Shift=    0.000
 Gap=     0.537 Goal=   None    Shift=    0.000
 RMSDP=3.99D-05 MaxDP=1.42D-03 DE=-1.35D-04 OVMax= 2.92D-03

 Cycle   6  Pass 1  IDiag  1:
 RMSU=  1.50D-05    CP:  6.25D-01  1.30D+00  1.30D+00  1.44D+00  1.56D+00
 FoFJK:  IHMeth= 1 ICntrl=     0 DoSepK=T KAlg= 1 I1Cent= 0 FoldK=F
 E= -40.8687906384558     Delta-E=       -0.000010650092 Rises=F Damp=F
 DIIS: error= 1.25D-04 at cycle   6 NSaved=   6.
 NSaved= 6 IEnMin= 6 EnMin= -40.8687906384558     IErMin= 6 ErrMin= 1.25D-04
 ErrMax= 1.25D-04 EMaxC= 1.00D-01 BMatC= 1.06D-06 BMatP= 9.61D-06
 IDIUse=3 WtCom= 9.99D-01 WtEn= 1.25D-03
 Coeff-Com:  0.465D-03 0.428D-02 0.197D-01-0.973D-01-0.122D+00 0.119D+01
 Coeff-En:   0.000D+00 0.000D+00 0.000D+00 0.000D+00 0.000D+00 0.100D+01
 Coeff:      0.465D-03 0.428D-02 0.197D-01-0.972D-01-0.122D+00 0.119D+01
 Gap=     0.428 Goal=   None    Shift=    0.000
 Gap=     0.537 Goal=   None    Shift=    0.000
 RMSDP=1.42D-05 MaxDP=4.04D-04 DE=-1.07D-05 OVMax= 1.11D-03

 Cycle   7  Pass 1  IDiag  1:
 RMSU=  3.25D-06    CP:  6.25D-01  1.30D+00  1.30D+00  1.44D+00  1.74D+00
                    CP:  1.37D+00
 FoFJK:  IHMeth= 1 ICntrl=     0 DoSepK=T KAlg= 1 I1Cent= 0 FoldK=F
 E= -40.8687918156623     Delta-E=       -0.000001177206 Rises=F Damp=F
 DIIS: error= 4.87D-05 at cycle   7 NSaved=   7.
 NSaved= 7 IEnMin= 7 EnMin= -40.8687918156623     IErMin= 7 ErrMin= 4.87D-05
 ErrMax= 4.87D-05 EMaxC= 1.00D-01 BMatC= 1.15D-07 BMatP= 1.06D-06
 IDIUse=1 WtCom= 1.00D+00 WtEn= 0.00D+00
 Coeff-Com: -0.778D-03-0.136D-02-0.431D-02 0.457D-01-0.640D-01-0.350D+00
 Coeff-Com:  0.137D+01
 Coeff:     -0.778D-03-0.136D-02-0.431D-02 0.457D-01-0.640D-01-0.350D+00
 Coeff:      0.137D+01
 Gap=     0.428 Goal=   None    Shift=    0.000
 Gap=     0.537 Goal=   None    Shift=    0.000
 RMSDP=5.27D-06 MaxDP=1.50D-04 DE=-1.18D-06 OVMax= 3.96D-04

 Cycle   8  Pass 1  IDiag  1:
 RMSU=  1.21D-06    CP:  6.25D-01  1.30D+00  1.29D+00  1.44D+00  1.78D+00
                    CP:  1.50D+00  1.67D+00
 FoFJK:  IHMeth= 1 ICntrl=     0 DoSepK=T KAlg= 1 I1Cent= 0 FoldK=F
 E= -40.8687919436270     Delta-E=       -0.000000127965 Rises=F Damp=F
 DIIS: error= 1.46D-05 at cycle   8 NSaved=   8.
 NSaved= 8 IEnMin= 8 EnMin= -40.8687919436270     IErMin= 8 ErrMin= 1.46D-05
 ErrMax= 1.46D-05 EMaxC= 1.00D-01 BMatC= 9.07D-09 BMatP= 1.15D-07
 IDIUse=1 WtCom= 1.00D+00 WtEn= 0.00D+00
 Coeff-Com:  0.226D-03 0.207D-03 0.734D-03-0.106D-01 0.317D-01 0.579D-01
 Coeff-Com: -0.580D+00 0.150D+01
 Coeff:      0.226D-03 0.207D-03 0.734D-03-0.106D-01 0.317D-01 0.579D-01
 Coeff:     -0.580D+00 0.150D+01
 Gap=     0.428 Goal=   None    Shift=    0.000
 Gap=     0.537 Goal=   None    Shift=    0.000
 RMSDP=1.73D-06 MaxDP=4.44D-05 DE=-1.28D-07 OVMax= 1.19D-04

 Cycle   9  Pass 1  IDiag  1:
 RMSU=  3.95D-07    CP:  6.25D-01  1.30D+00  1.29D+00  1.44D+00  1.79D+00
                    CP:  1.53D+00  1.87D+00  1.69D+00
 FoFJK:  IHMeth= 1 ICntrl=     0 DoSepK=T KAlg= 1 I1Cent= 0 FoldK=F
 E= -40.8687919545731     Delta-E=       -0.000000010946 Rises=F Damp=F
 DIIS: error= 3.48D-06 at cycle   9 NSaved=   9.
 NSaved= 9 IEnMin= 9 EnMin= -40.8687919545731     IErMin= 9 ErrMin= 3.48D-06
 ErrMax= 3.48D-06 EMaxC= 1.00D-01 BMatC= 4.40D-10 BMatP= 9.07D-09
 IDIUse=1 WtCom= 1.00D+00 WtEn= 0.00D+00
 Coeff-Com: -0.409D-04-0.145D-04-0.154D-03 0.173D-02-0.761D-02-0.300D-02
 Coeff-Com:  0.126D+00-0.516D+00 0.140D+01
 Coeff:     -0.409D-04-0.145D-04-0.154D-03 0.173D-02-0.761D-02-0.300D-02
 Coeff:      0.126D+00-0.516D+00 0.140D+01
 Gap=     0.428 Goal=   None    Shift=    0.000
 Gap=     0.537 Goal=   None    Shift=    0.000
 RMSDP=4.53D-07 MaxDP=1.37D-05 DE=-1.09D-08 OVMax= 2.54D-05

 Cycle  10  Pass 1  IDiag  1:
 RMSU=  8.96D-08    CP:  6.25D-01  1.30D+00  1.29D+00  1.44D+00  1.80D+00
                    CP:  1.53D+00  1.87D+00  1.85D+00  1.49D+00
 FoFJK:  IHMeth= 1 ICntrl=     0 DoSepK=T KAlg= 1 I1Cent= 0 FoldK=F
 E= -40.8687919551187     Delta-E=       -0.000000000546 Rises=F Damp=F
 DIIS: error= 7.52D-07 at cycle  10 NSaved=  10.
 NSaved=10 IEnMin=10 EnMin= -40.8687919551187     IErMin=10 ErrMin= 7.52D-07
 ErrMax= 7.52D-07 EMaxC= 1.00D-01 BMatC= 3.21D-11 BMatP= 4.40D-10
 IDIUse=1 WtCom= 1.00D+00 WtEn= 0.00D+00
 Coeff-Com:  0.354D-05 0.614D-05 0.646D-04-0.252D-03 0.959D-03-0.139D-02
 Coeff-Com: -0.763D-02 0.648D-01-0.402D+00 0.135D+01
 Coeff:      0.354D-05 0.614D-05 0.646D-04-0.252D-03 0.959D-03-0.139D-02
 Coeff:     -0.763D-02 0.648D-01-0.402D+00 0.135D+01
 Gap=     0.428 Goal=   None    Shift=    0.000
 Gap=     0.537 Goal=   None    Shift=    0.000
 RMSDP=1.27D-07 MaxDP=4.78D-06 DE=-5.46D-10 OVMax= 5.71D-06

 Cycle  11  Pass 1  IDiag  1:
 RMSU=  1.53D-08    CP:  6.25D-01  1.30D+00  1.29D+00  1.44D+00  1.80D+00
                    CP:  1.53D+00  1.87D+00  1.88D+00  1.58D+00  1.52D+00
 FoFJK:  IHMeth= 1 ICntrl=     0 DoSepK=T KAlg= 1 I1Cent= 0 FoldK=F
 E= -40.8687919551620     Delta-E=       -0.000000000043 Rises=F Damp=F
 DIIS: error= 1.79D-07 at cycle  11 NSaved=  11.
 NSaved=11 IEnMin=11 EnMin= -40.8687919551620     IErMin=11 ErrMin= 1.79D-07
 ErrMax= 1.79D-07 EMaxC= 1.00D-01 BMatC= 4.14D-12 BMatP= 3.21D-11
 IDIUse=1 WtCom= 1.00D+00 WtEn= 0.00D+00
 Coeff-Com:  0.769D-06-0.162D-05-0.173D-04-0.558D-05 0.117D-03 0.117D-02
 Coeff-Com: -0.839D-02 0.205D-01 0.385D-01-0.592D+00 0.154D+01
 Coeff:      0.769D-06-0.162D-05-0.173D-04-0.558D-05 0.117D-03 0.117D-02
 Coeff:     -0.839D-02 0.205D-01 0.385D-01-0.592D+00 0.154D+01
 Gap=     0.428 Goal=   None    Shift=    0.000
 Gap=     0.537 Goal=   None    Shift=    0.000
 RMSDP=3.07D-08 MaxDP=5.90D-07 DE=-4.33D-11 OVMax= 1.80D-06

 Cycle  12  Pass 1  IDiag  1:
 RMSU=  5.78D-09    CP:  6.25D-01  1.30D+00  1.29D+00  1.44D+00  1.80D+00
                    CP:  1.53D+00  1.87D+00  1.88D+00  1.59D+00  1.71D+00
                    CP:  1.72D+00
 FoFJK:  IHMeth= 1 ICntrl=     0 DoSepK=T KAlg= 1 I1Cent= 0 FoldK=F
 E= -40.8687919551663     Delta-E=       -0.000000000004 Rises=F Damp=F
 DIIS: error= 3.53D-08 at cycle  12 NSaved=  12.
 NSaved=12 IEnMin=12 EnMin= -40.8687919551663     IErMin=12 ErrMin= 3.53D-08
 ErrMax= 3.53D-08 EMaxC= 1.00D-01 BMatC= 2.18D-13 BMatP= 4.14D-12
 IDIUse=1 WtCom= 1.00D+00 WtEn= 0.00D+00
 Coeff-Com: -0.412D-07 0.818D-06 0.372D-05-0.719D-05-0.335D-04-0.235D-03
 Coeff-Com:  0.264D-02-0.989D-02 0.161D-01 0.101D+00-0.549D+00 0.144D+01
 Coeff:     -0.412D-07 0.818D-06 0.372D-05-0.719D-05-0.335D-04-0.235D-03
 Coeff:      0.264D-02-0.989D-02 0.161D-01 0.101D+00-0.549D+00 0.144D+01
 Gap=     0.428 Goal=   None    Shift=    0.000
 Gap=     0.537 Goal=   None    Shift=    0.000
 RMSDP=7.66D-09 MaxDP=1.69D-07 DE=-4.33D-12 OVMax= 2.81D-07

 SCF Done:  E(ULC-B+HF-LYP) =  -40.8687919552     A.U. after   12 cycles
             Convg  =    0.7665D-08             -V/T =  2.0046
 <Sx>= 0.0000 <Sy>= 0.0000 <Sz>= 0.5000 <S**2>= 0.7580 S= 0.5040
 <L.S>= 0.000000000000E+00
 KE= 4.068228424478D+01 PE=-1.252842928677D+02 EE= 2.810413884216D+01
 Annihilation of the first spin contaminant:
 S**2 before annihilation     0.7580,   after     0.7500
 Leave Link  502 at Wed Nov  3 01:10:55 2010, MaxMem=  786432000 cpu:     283.2
 (Enter /share/apps/G09A02/g09/l601.exe)
 Copying SCF densities to generalized density rwf, IOpCl= 1 IROHF=0.

 **********************************************************************

            Population analysis using the SCF density.

 **********************************************************************

 Alpha  occ. eigenvalues --  -10.13317  -0.87596  -0.59869  -0.54192  -0.54192
 Alpha  occ. eigenvalues --   -0.36079
 Alpha virt. eigenvalues --    0.06769   0.09204   0.09204   0.10271   0.22025
 Alpha virt. eigenvalues --    0.22025   0.24659   0.28728   0.34831   0.34831
 Alpha virt. eigenvalues --    0.39454   0.40916   0.40917   0.46657   0.62517
 Alpha virt. eigenvalues --    0.62517   0.66798   0.70871   0.73342   0.73342
 Alpha virt. eigenvalues --    0.77606   0.81081   0.81081   0.90748   0.97525
 Alpha virt. eigenvalues --    1.07366   1.07366   1.10388   1.10388   1.19788
 Alpha virt. eigenvalues --    1.27117   1.27117   1.33085   1.40881   1.40881
 Alpha virt. eigenvalues --    1.56379   1.95659   2.05113   2.05113   2.07435
 Alpha virt. eigenvalues --    2.07435   2.19672   2.50130   2.67605   2.77927
 Alpha virt. eigenvalues --    2.77927   2.97677   3.07376   3.11916   3.11916
 Alpha virt. eigenvalues --    3.40289   3.43312   3.43312   3.65218   3.65218
 Alpha virt. eigenvalues --    3.71496   3.88334   3.88334   3.92491   4.07419
 Alpha virt. eigenvalues --    4.25797   4.25797   4.32132   4.32132   4.51108
 Alpha virt. eigenvalues --    4.51108   4.51174   4.64479   5.19774   5.71553
 Alpha virt. eigenvalues --    5.84400   5.84400   7.27539   7.27539   7.85257
 Alpha virt. eigenvalues --    7.85257   7.98795  24.24018
  Beta  occ. eigenvalues --  -10.12691  -0.85893  -0.53770  -0.53770  -0.53633
  Beta virt. eigenvalues --    0.00114   0.07552   0.09113   0.09114   0.10435
  Beta virt. eigenvalues --    0.22232   0.22232   0.25280   0.29777   0.35109
  Beta virt. eigenvalues --    0.35109   0.40350   0.40911   0.40911   0.50394
  Beta virt. eigenvalues --    0.63398   0.63398   0.70002   0.71353   0.75520
  Beta virt. eigenvalues --    0.75520   0.77628   0.81856   0.81856   0.91312
  Beta virt. eigenvalues --    0.97512   1.07946   1.07946   1.11008   1.11008
  Beta virt. eigenvalues --    1.22740   1.27335   1.27335   1.33603   1.41315
  Beta virt. eigenvalues --    1.41315   1.57207   1.97345   2.06415   2.06415
  Beta virt. eigenvalues --    2.08044   2.08044   2.22086   2.55691   2.73199
  Beta virt. eigenvalues --    2.78539   2.78539   3.01293   3.07629   3.13147
  Beta virt. eigenvalues --    3.13148   3.41126   3.44108   3.44108   3.65692
  Beta virt. eigenvalues --    3.65693   3.73297   3.95804   4.00356   4.00356
  Beta virt. eigenvalues --    4.10326   4.25403   4.25403   4.31962   4.31962
  Beta virt. eigenvalues --    4.51475   4.51475   4.54960   4.64660   5.20474
  Beta virt. eigenvalues --    5.73647   5.84724   5.84724   7.29516   7.29517
  Beta virt. eigenvalues --    7.86332   7.86332   8.01492  24.24861
          Condensed to atoms (all electrons):
              1          2          3          4          5          6
     1  C    5.165608   0.348403   0.404714   0.404716   0.404716  -0.069113
     2  H    0.348403   0.511135  -0.013896  -0.013898  -0.013898  -0.001295
     3  H    0.404714  -0.013896   0.467153  -0.017463  -0.017463   0.001329
     4  H    0.404716  -0.013898  -0.017463   0.467147  -0.017463   0.001329
     5  H    0.404716  -0.013898  -0.017463  -0.017463   0.467147   0.001329
     6  H   -0.069113  -0.001295   0.001329   0.001329   0.001329   1.117718
 Mulliken atomic charges:
              1
     1  C   -0.659043
     2  H    0.183449
     3  H    0.175627
     4  H    0.175632
     5  H    0.175632
     6  H   -0.051297
 Sum of Mulliken atomic charges =   0.00000
 Mulliken charges with hydrogens summed into heavy atoms:
              1
     1  C    0.000000
 Sum of Mulliken charges with hydrogens summed into heavy atoms =   0.00000
          Atomic-Atomic Spin Densities.
              1          2          3          4          5          6
     1  C    0.384407   0.058249  -0.001535  -0.001535  -0.001535  -0.105797
     2  H    0.058249  -0.096178   0.000998   0.000998   0.000998  -0.114084
     3  H   -0.001535   0.000998  -0.007635   0.000749   0.000749   0.003069
     4  H   -0.001535   0.000998   0.000749  -0.007634   0.000750   0.003069
     5  H   -0.001535   0.000998   0.000749   0.000750  -0.007634   0.003069
     6  H   -0.105797  -0.114084   0.003069   0.003069   0.003069   1.038248
 Mulliken atomic spin densities:
              1
     1  C    0.332253
     2  H   -0.149018
     3  H   -0.003604
     4  H   -0.003603
     5  H   -0.003603
     6  H    0.827575
 Sum of Mulliken atomic spin densities =   1.00000
 Electronic spatial extent (au):  <R**2>=             59.5013
 Charge=              0.0000 electrons
 Dipole moment (field-independent basis, Debye):
    X=              0.0000    Y=              0.0000    Z=             -0.6316  Tot=              0.6316
 Quadrupole moment (field-independent basis, Debye-Ang):
   XX=             -9.7175   YY=             -9.7175   ZZ=            -11.9231
   XY=              0.0000   XZ=              0.0000   YZ=              0.0000
 Traceless Quadrupole moment (field-independent basis, Debye-Ang):
   XX=              0.7352   YY=              0.7352   ZZ=             -1.4704
   XY=              0.0000   XZ=              0.0000   YZ=              0.0000
 Octapole moment (field-independent basis, Debye-Ang**2):
  XXX=              0.7533  YYY=              0.0000  ZZZ=            -14.6852  XYY=             -0.7533
  XXY=              0.0000  XXZ=             -3.9490  XZZ=              0.0000  YZZ=              0.0000
  YYZ=             -3.9490  XYZ=              0.0000
 Hexadecapole moment (field-independent basis, Debye-Ang**3):
 XXXX=            -18.0235 YYYY=            -18.0235 ZZZZ=            -78.8605 XXXY=              0.0000
 XXXZ=             -0.4058 YYYX=              0.0000 YYYZ=              0.0000 ZZZX=              0.0000
 ZZZY=              0.0000 XXYY=             -6.0078 XXZZ=            -14.4678 YYZZ=            -14.4678
 XXYZ=              0.0000 YYXZ=              0.4058 ZZXY=              0.0000
 N-N= 1.562907782560D+01 E-N=-1.856577414226D+02  KE= 6.055566830738D+01
                          Isotropic Fermi Contact Couplings
        Atom                 a.u.       MegaHertz       Gauss      10(-4) cm-1
     1  C(13)              0.14638     164.55496      58.71730      54.88963
     2  H(1)              -0.02775    -124.02989     -44.25695     -41.37192
     3  H(1)              -0.00319     -14.25401      -5.08619      -4.75463
     4  H(1)              -0.00319     -14.25397      -5.08617      -4.75461
     5  H(1)              -0.00319     -14.25397      -5.08617      -4.75461
     6  H(1)               0.24792    1108.15408     395.41692     369.64041
 --------------------------------------------------------
       Center         ----  Spin Dipole Couplings  ----
                      3XX-RR        3YY-RR        3ZZ-RR
 --------------------------------------------------------
     1   Atom       -0.220966     -0.220966      0.441931
     2   Atom       -0.110884     -0.110884      0.221767
     3   Atom        0.020668     -0.027494      0.006826
     4   Atom       -0.015453      0.008627      0.006826
     5   Atom       -0.015453      0.008627      0.006826
     6   Atom        0.007335      0.007335     -0.014671
 --------------------------------------------------------
                        XY            XZ            YZ
 --------------------------------------------------------
     1   Atom        0.000000      0.000000      0.000000
     2   Atom        0.000000      0.000000      0.000000
     3   Atom        0.000000     -0.015528      0.000000
     4   Atom        0.020854      0.007764      0.013448
     5   Atom       -0.020854      0.007764     -0.013448
     6   Atom        0.000000      0.000000      0.000000
 --------------------------------------------------------


 ---------------------------------------------------------------------------------
              Anisotropic Spin Dipole Couplings in Principal Axis System
 ---------------------------------------------------------------------------------

       Atom             a.u.   MegaHertz   Gauss  10(-4) cm-1        Axes

              Baa    -0.2210   -29.651   -10.580    -9.891  0.0000  1.0000  0.0000
     1 C(13)  Bbb    -0.2210   -29.651   -10.580    -9.891  1.0000  0.0000  0.0000
              Bcc     0.4419    59.303    21.161    19.781  0.0000  0.0000  1.0000
 
              Baa    -0.1109   -59.162   -21.111   -19.734  1.0000  0.0000  0.0000
     2 H(1)   Bbb    -0.1109   -59.162   -21.111   -19.734  0.0000  1.0000  0.0000
              Bcc     0.2218   118.324    42.221    39.469  0.0000  0.0000  1.0000
 
              Baa    -0.0275   -14.669    -5.234    -4.893  0.0000  1.0000  0.0000
     3 H(1)   Bbb    -0.0033    -1.736    -0.619    -0.579  0.5445  0.0000  0.8388
              Bcc     0.0307    16.405     5.854     5.472  0.8388  0.0000 -0.5445
 
              Baa    -0.0275   -14.669    -5.234    -4.893  0.8660 -0.5000  0.0000
     4 H(1)   Bbb    -0.0033    -1.736    -0.619    -0.579 -0.2722 -0.4715  0.8388
              Bcc     0.0307    16.405     5.854     5.472  0.4194  0.7264  0.5445
 
              Baa    -0.0275   -14.669    -5.234    -4.893  0.8660  0.5000  0.0000
     5 H(1)   Bbb    -0.0033    -1.736    -0.619    -0.579 -0.2722  0.4715  0.8388
              Bcc     0.0307    16.405     5.854     5.472 -0.4194  0.7264 -0.5445
 
              Baa    -0.0147    -7.827    -2.793    -2.611  0.0000  0.0000  1.0000
     6 H(1)   Bbb     0.0073     3.914     1.397     1.305  1.0000  0.0000  0.0000
              Bcc     0.0073     3.914     1.397     1.305  0.0000  1.0000  0.0000
 

 ---------------------------------------------------------------------------------

 No NMR shielding tensors so no spin-rotation constants.
 Leave Link  601 at Wed Nov  3 01:10:55 2010, MaxMem=  786432000 cpu:       3.9
 (Enter /share/apps/G09A02/g09/l9999.exe)
 1\1\GINC-COMPUTE-0-7\SP\ULC-BLYP\6-311+G(3df,2p)\C1H5(2)\WENXINZY\03-N
 ov-2010\0\\#p lc-blyp/6-311+g(3df,2p) nosymm scf=tight\\6 H_CH4\\0,2\C
 \H,1,1.1855883\H,1,1.0881861,2,107.1894646\H,1,1.0881861,2,107.1894646
 ,3,120.,0\H,1,1.0881861,2,107.1894646,3,-120.,0\H,2,1.089362,1,180.,3,
 0.,0\\Version=EM64L-G09RevA.02\HF=-40.868792\S2=0.757956\S2-1=0.\S2A=0
 .750007\RMSD=7.665e-09\Dipole=0.0000015,0.,-0.2485029\Quadrupole=0.546
 6054,0.546608,-1.0932135,0.,0.0000011,0.\PG=C03V [C3(H1H1C1),3SGV(H1)]
 \\@


 IN THE WOODS WE RETURN TO REASON AND FAITH.

                                 -- EMERSON
 Job cpu time:  0 days  0 hours  4 minutes 57.8 seconds.
 File lengths (MBytes):  RWF=      9 Int=      0 D2E=      0 Chk=      1 Scr=      1
 Normal termination of Gaussian 09 at Wed Nov  3 01:10:56 2010.
