 Entering Gaussian System, Link 0=/share/apps/G09A02/g09/g09
 Input=./.script12553/Job_H_CH4_22.com
 Output=./.script12553/Job_H_CH4_22.log
 Initial command:
 /share/apps/G09A02/g09/l1.exe /state/partition1/wenxinzy/scratch/Gau-14819.inp -scrdir=/state/partition1/wenxinzy/scratch/
 Default is to use a total of   8 processors:
                                8 via shared-memory
                                1 via Linda
 Entering Link 1 = /share/apps/G09A02/g09/l1.exe PID=     14820.
  
 Copyright (c) 1988,1990,1992,1993,1995,1998,2003,2009, Gaussian, Inc.
                  All Rights Reserved.
  
 This is part of the Gaussian(R) 09 program.  It is based on
 the Gaussian(R) 03 system (copyright 2003, Gaussian, Inc.),
 the Gaussian(R) 98 system (copyright 1998, Gaussian, Inc.),
 the Gaussian(R) 94 system (copyright 1995, Gaussian, Inc.),
 the Gaussian 92(TM) system (copyright 1992, Gaussian, Inc.),
 the Gaussian 90(TM) system (copyright 1990, Gaussian, Inc.),
 the Gaussian 88(TM) system (copyright 1988, Gaussian, Inc.),
 the Gaussian 86(TM) system (copyright 1986, Carnegie Mellon
 University), and the Gaussian 82(TM) system (copyright 1983,
 Carnegie Mellon University). Gaussian is a federally registered
 trademark of Gaussian, Inc.
  
 This software contains proprietary and confidential information,
 including trade secrets, belonging to Gaussian, Inc.
  
 This software is provided under written license and may be
 used, copied, transmitted, or stored only in accord with that
 written license.
  
 The following legend is applicable only to US Government
 contracts under FAR:
  
                    RESTRICTED RIGHTS LEGEND
  
 Use, reproduction and disclosure by the US Government is
 subject to restrictions as set forth in subparagraphs (a)
 and (c) of the Commercial Computer Software - Restricted
 Rights clause in FAR 52.227-19.
  
 Gaussian, Inc.
 340 Quinnipiac St., Bldg. 40, Wallingford CT 06492
  
  
 ---------------------------------------------------------------
 Warning -- This program may not be used in any manner that
 competes with the business of Gaussian, Inc. or will provide
 assistance to any competitor of Gaussian, Inc.  The licensee
 of this program is prohibited from giving any competitor of
 Gaussian, Inc. access to this program.  By using this program,
 the user acknowledges that Gaussian, Inc. is engaged in the
 business of creating and licensing software in the field of
 computational chemistry and represents and warrants to the
 licensee that it is not a competitor of Gaussian, Inc. and that
 it will not use this program in any manner prohibited above.
 ---------------------------------------------------------------
  

 Cite this work as:
 Gaussian 09, Revision A.02,
 M. J. Frisch, G. W. Trucks, H. B. Schlegel, G. E. Scuseria, 
 M. A. Robb, J. R. Cheeseman, G. Scalmani, V. Barone, B. Mennucci, 
 G. A. Petersson, H. Nakatsuji, M. Caricato, X. Li, H. P. Hratchian, 
 A. F. Izmaylov, J. Bloino, G. Zheng, J. L. Sonnenberg, M. Hada, 
 M. Ehara, K. Toyota, R. Fukuda, J. Hasegawa, M. Ishida, T. Nakajima, 
 Y. Honda, O. Kitao, H. Nakai, T. Vreven, J. A. Montgomery, Jr., 
 J. E. Peralta, F. Ogliaro, M. Bearpark, J. J. Heyd, E. Brothers, 
 K. N. Kudin, V. N. Staroverov, R. Kobayashi, J. Normand, 
 K. Raghavachari, A. Rendell, J. C. Burant, S. S. Iyengar, J. Tomasi, 
 M. Cossi, N. Rega, J. M. Millam, M. Klene, J. E. Knox, J. B. Cross, 
 V. Bakken, C. Adamo, J. Jaramillo, R. Gomperts, R. E. Stratmann, 
 O. Yazyev, A. J. Austin, R. Cammi, C. Pomelli, J. W. Ochterski, 
 R. L. Martin, K. Morokuma, V. G. Zakrzewski, G. A. Voth, 
 P. Salvador, J. J. Dannenberg, S. Dapprich, A. D. Daniels, 
 O. Farkas, J. B. Foresman, J. V. Ortiz, J. Cioslowski, 
 and D. J. Fox, Gaussian, Inc., Wallingford CT, 2009.
 
 ******************************************
 Gaussian 09:  EM64L-G09RevA.02 11-Jun-2009
                 3-Nov-2010 
 ******************************************
 %chk=/state/partition1/wenxinzy/scratch/H_CH4_22.chk
 %nproc=8
 Will use up to    8 processors via shared memory.
 %mem=6000mb
 -------------------------------------------
 #p lc-blyp/6-311+g(3df,2p) nosymm scf=tight
 -------------------------------------------
 1/38=1/1;
 2/12=2,15=1,17=6,18=5,40=1/2;
 3/5=4,6=6,7=216,11=2,16=1,25=1,30=1,74=1000402/1,2,3;
 4//1;
 5/5=2,32=2,38=5/2;
 6/7=2,8=2,9=2,10=2,28=1/1;
 99/5=1,9=1/99;
 Leave Link    1 at Wed Nov  3 01:20:30 2010, MaxMem=  786432000 cpu:       0.3
 (Enter /share/apps/G09A02/g09/l101.exe)
 --------
 23 H_CH4
 --------
 Symbolic Z-matrix:
 Charge =  0 Multiplicity = 2
 C
 H1                   C    R1
 H2                   C    R2       H1   A1
 H3                   C    R2       H1   A1       H2    120.     0
 H4                   C    R2       H1   A1       H2   -120.     0
 H5                   H1   R3       C     180.     H2    0.       0
       Variables:
  R1                    1.09009                  
  R2                    1.08942                  
  A1                  109.45988                  
  R3                    2.12222                  
 
 NAtoms=      6 NQM=      6 NQMF=      0 NMic=      0 NMicF=      0 NTot=      6.
                    Isotopes and Nuclear Properties:
 (Nuclear quadrupole moments (NQMom) in fm**2, nuclear magnetic moments (NMagM)
  in nuclear magnetons)

  Atom         1           2           3           4           5           6
 IAtWgt=          12           1           1           1           1           1
 AtmWgt=  12.0000000   1.0078250   1.0078250   1.0078250   1.0078250   1.0078250
 NucSpn=           0           1           1           1           1           1
 AtZEff=   0.0000000   0.0000000   0.0000000   0.0000000   0.0000000   0.0000000
 NQMom=    0.0000000   0.0000000   0.0000000   0.0000000   0.0000000   0.0000000
 NMagM=    0.0000000   2.7928460   2.7928460   2.7928460   2.7928460   2.7928460
 Leave Link  101 at Wed Nov  3 01:20:30 2010, MaxMem=  786432000 cpu:       1.0
 (Enter /share/apps/G09A02/g09/l202.exe)
                          Input orientation:                          
 ---------------------------------------------------------------------
 Center     Atomic      Atomic             Coordinates (Angstroms)
 Number     Number       Type             X           Y           Z
 ---------------------------------------------------------------------
      1          6           0        0.000000    0.000000    0.000000
      2          1           0        0.000000    0.000000    1.090088
      3          1           0        1.027183    0.000000   -0.362935
      4          1           0       -0.513591   -0.889566   -0.362935
      5          1           0       -0.513591    0.889566   -0.362935
      6          1           0        0.000000    0.000000    3.212306
 ---------------------------------------------------------------------
                    Distance matrix (angstroms):
                    1          2          3          4          5
     1  C    0.000000
     2  H    1.090088   0.000000
     3  H    1.089416   1.779433   0.000000
     4  H    1.089416   1.779433   1.779132   0.000000
     5  H    1.089416   1.779433   1.779132   1.779132   0.000000
     6  H    3.212306   2.122218   3.719873   3.719873   3.719873
                    6
     6  H    0.000000
 Symmetry turned off by external request.
 Stoichiometry    CH5(2)
 Framework group  C3V[C3(HHC),3SGV(H)]
 Deg. of freedom     4
 Full point group                 C3V     NOp   6
 Rotational constants (GHZ):    158.4219934     38.9503911     38.9503911
 Leave Link  202 at Wed Nov  3 01:20:30 2010, MaxMem=  786432000 cpu:       0.0
 (Enter /share/apps/G09A02/g09/l301.exe)
 Standard basis: 6-311+G(3df,2p) (5D, 7F)
 Ernie: Thresh=  0.10000D-02 Tol=  0.10000D-05 Strict=F.
 Integral buffers will be    131072 words long.
 Raffenetti 2 integral format.
 Two-electron integral symmetry is turned off.
    84 basis functions,   113 primitive gaussians,    90 cartesian basis functions
     6 alpha electrons        5 beta electrons
       nuclear repulsion energy        15.1050514061 Hartrees.
 IExCor=10402 DFT=T Ex=LC-B+HF Corr=LYP ExCW=0 ScaHFX=  1.000000
 ScaDFX=  1.000000  1.000000  1.000000  1.000000 ScalE2=  1.000000  1.000000
 IRadAn=      0 IRanWt=     -1 IRanGd=            0 ICorTp=0
  HFx wShort=  0.000000 wLong=  0.470000 cFull=  0.000000 cShort=  0.000000 cLong=  1.000000
  DFx wShort=  0.000000 wLong=  0.470000 cFull=  0.000000 cShort=  0.000000 cLong=  1.000000
 NAtoms=    6 NActive=    6 NUniq=    6 SFac= 7.50D-01 NAtFMM=   80 NAOKFM=F Big=F
 Leave Link  301 at Wed Nov  3 01:20:30 2010, MaxMem=  786432000 cpu:       0.6
 (Enter /share/apps/G09A02/g09/l302.exe)
 NPDir=0 NMtPBC=     1 NCelOv=     1 NCel=       1 NClECP=     1 NCelD=      1
         NCelK=      1 NCelE2=     1 NClLst=     1 CellRange=     0.0.
 One-electron integrals computed using PRISM.
 NBasis=    84 RedAO= T  NBF=    84
 NBsUse=    84 1.00D-06 NBFU=    84
 Precomputing XC quadrature grid using
 IXCGrd= 2 IRadAn=           0 IRanWt=          -1 IRanGd=           0 AccXCQ= 1.00D-10.
 NRdTot=     383 NPtTot=       48740 NUsed=       51512 NTot=       51544
 NSgBfM=    90    90    90    90    90 NAtAll=     6     6.
 Leave Link  302 at Wed Nov  3 01:20:30 2010, MaxMem=  786432000 cpu:       2.5
 (Enter /share/apps/G09A02/g09/l303.exe)
 DipDrv:  MaxL=1.
 Leave Link  303 at Wed Nov  3 01:20:30 2010, MaxMem=  786432000 cpu:       0.8
 (Enter /share/apps/G09A02/g09/l401.exe)
 Harris functional with IExCor=10402 diagonalized for initial guess.
 ExpMin= 4.38D-02 ExpMax= 4.56D+03 ExpMxC= 6.82D+02 IAcc=2 IRadAn=         0 AccDes= 0.00D+00
 HarFok:  IExCor=10402 AccDes= 0.00D+00 IRadAn=         0 IDoV= 1
 ScaDFX=  1.000000  1.000000  1.000000  1.000000
 FoFCou: FMM=F IPFlag=           0 FMFlag=      100000 FMFlg1=           0
         NFxFlg=           0 DoJE=T BraDBF=F KetDBF=T FulRan=T
         Omega=  0.000000  0.000000  1.000000  0.000000  0.000000 ICntrl=     500 IOpCl=  0
         NMat0=    1 NMatS0=    1 NMatT0=    0 NMatD0=    1 NMtDS0=    0 NMtDT0=    0
         I1Cent=           4 NGrid=           0.
 Symmetry not used in FoFCou.
 Harris En= -38.5634906726216    
 Initial guess <Sx>= 0.0000 <Sy>= 0.0000 <Sz>= 0.5000 <S**2>= 0.7500 S= 0.5000
 Leave Link  401 at Wed Nov  3 01:20:31 2010, MaxMem=  786432000 cpu:       3.7
 (Enter /share/apps/G09A02/g09/l502.exe)
 UHF open shell SCF:
 Requested convergence on RMS density matrix=1.00D-08 within 128 cycles.
 Requested convergence on MAX density matrix=1.00D-06.
 Requested convergence on             energy=1.00D-06.
 No special actions if energy rises.
 Using DIIS extrapolation, IDIIS=  1040.
 Two-electron integral symmetry not used.
        51445 words used for storage of precomputed grid.
 IEnd=       95163 IEndB=       95163 NGot=   786432000 MDV=   786361668
 LenX=   786361668 LenY=   786353127
 Fock matrices will be formed incrementally for  20 cycles.

 Cycle   1  Pass 1  IDiag  1:
 FoFJK:  IHMeth= 1 ICntrl=     0 DoSepK=T KAlg= 1 I1Cent= 0 FoldK=F
 FoFCou: FMM=F IPFlag=           0 FMFlag=      100000 FMFlg1=           0
         NFxFlg=           0 DoJE=T BraDBF=F KetDBF=F FulRan=T
         Omega=  0.000000  0.000000  1.000000  0.000000  0.000000 ICntrl=     500 IOpCl=  0
         NMat0=    1 NMatS0=    1 NMatT0=    0 NMatD0=    1 NMtDS0=    0 NMtDT0=    0
         I1Cent=           0 NGrid=           0.
 Symmetry not used in FoFCou.
 E= -40.7964766144169    
 DIIS: error= 3.41D-02 at cycle   1 NSaved=   1.
 NSaved= 1 IEnMin= 1 EnMin= -40.7964766144169     IErMin= 1 ErrMin= 3.41D-02
 ErrMax= 3.41D-02 EMaxC= 1.00D-01 BMatC= 2.61D-01 BMatP= 2.61D-01
 IDIUse=3 WtCom= 6.59D-01 WtEn= 3.41D-01
 Coeff-Com:  0.100D+01
 Coeff-En:   0.100D+01
 Coeff:      0.100D+01
 Gap=     0.509 Goal=   None    Shift=    0.000
 Gap=     0.351 Goal=   None    Shift=    0.000
 GapD=    0.351 DampG=1.000 DampE=0.500 DampFc=0.5000 IDamp=-1.
 Damping current iteration by 5.00D-01
 RMSDP=5.40D-03 MaxDP=2.00D-01              OVMax= 1.63D-01

 Cycle   2  Pass 1  IDiag  1:
 RMSU=  2.03D-03    CP:  8.83D-01
 FoFJK:  IHMeth= 1 ICntrl=     0 DoSepK=T KAlg= 1 I1Cent= 0 FoldK=F
 E= -40.8395432054239     Delta-E=       -0.043066591007 Rises=F Damp=T
 DIIS: error= 1.12D-02 at cycle   2 NSaved=   2.
 NSaved= 2 IEnMin= 2 EnMin= -40.8395432054239     IErMin= 2 ErrMin= 1.12D-02
 ErrMax= 1.12D-02 EMaxC= 1.00D-01 BMatC= 2.18D-02 BMatP= 2.61D-01
 IDIUse=3 WtCom= 8.88D-01 WtEn= 1.12D-01
 Coeff-Com: -0.217D+00 0.122D+01
 Coeff-En:   0.000D+00 0.100D+01
 Coeff:     -0.193D+00 0.119D+01
 Gap=     0.543 Goal=   None    Shift=    0.000
 Gap=     0.473 Goal=   None    Shift=    0.000
 RMSDP=3.03D-03 MaxDP=1.25D-01 DE=-4.31D-02 OVMax= 5.05D-02

 Cycle   3  Pass 1  IDiag  1:
 RMSU=  9.61D-04    CP:  7.70D-01  2.06D+00
 FoFJK:  IHMeth= 1 ICntrl=     0 DoSepK=T KAlg= 1 I1Cent= 0 FoldK=F
 E= -40.8822341329377     Delta-E=       -0.042690927514 Rises=F Damp=F
 DIIS: error= 2.62D-03 at cycle   3 NSaved=   3.
 NSaved= 3 IEnMin= 3 EnMin= -40.8822341329377     IErMin= 3 ErrMin= 2.62D-03
 ErrMax= 2.62D-03 EMaxC= 1.00D-01 BMatC= 1.00D-03 BMatP= 2.18D-02
 IDIUse=3 WtCom= 9.74D-01 WtEn= 2.62D-02
 Coeff-Com:  0.383D-01-0.281D+00 0.124D+01
 Coeff-En:   0.000D+00 0.000D+00 0.100D+01
 Coeff:      0.373D-01-0.274D+00 0.124D+01
 Gap=     0.509 Goal=   None    Shift=    0.000
 Gap=     0.504 Goal=   None    Shift=    0.000
 RMSDP=7.25D-04 MaxDP=2.91D-02 DE=-4.27D-02 OVMax= 3.64D-02

 Cycle   4  Pass 1  IDiag  1:
 RMSU=  3.44D-04    CP:  7.48D-01  2.25D+00  1.31D+00
 FoFJK:  IHMeth= 1 ICntrl=     0 DoSepK=T KAlg= 1 I1Cent= 0 FoldK=F
 E= -40.8832434217038     Delta-E=       -0.001009288766 Rises=F Damp=F
 DIIS: error= 4.45D-04 at cycle   4 NSaved=   4.
 NSaved= 4 IEnMin= 4 EnMin= -40.8832434217038     IErMin= 4 ErrMin= 4.45D-04
 ErrMax= 4.45D-04 EMaxC= 1.00D-01 BMatC= 3.27D-05 BMatP= 1.00D-03
 IDIUse=3 WtCom= 9.96D-01 WtEn= 4.45D-03
 Coeff-Com: -0.596D-02 0.336D-02-0.139D+00 0.114D+01
 Coeff-En:   0.000D+00 0.000D+00 0.000D+00 0.100D+01
 Coeff:     -0.593D-02 0.334D-02-0.138D+00 0.114D+01
 Gap=     0.508 Goal=   None    Shift=    0.000
 Gap=     0.503 Goal=   None    Shift=    0.000
 RMSDP=1.12D-04 MaxDP=5.33D-03 DE=-1.01D-03 OVMax= 6.38D-03

 Cycle   5  Pass 1  IDiag  1:
 RMSU=  2.96D-05    CP:  7.44D-01  2.28D+00  1.34D+00  1.20D+00
 FoFJK:  IHMeth= 1 ICntrl=     0 DoSepK=T KAlg= 1 I1Cent= 0 FoldK=F
 E= -40.8832746597635     Delta-E=       -0.000031238060 Rises=F Damp=F
 DIIS: error= 1.56D-04 at cycle   5 NSaved=   5.
 NSaved= 5 IEnMin= 5 EnMin= -40.8832746597635     IErMin= 5 ErrMin= 1.56D-04
 ErrMax= 1.56D-04 EMaxC= 1.00D-01 BMatC= 8.21D-07 BMatP= 3.27D-05
 IDIUse=3 WtCom= 9.98D-01 WtEn= 1.56D-03
 Coeff-Com:  0.109D-02 0.375D-02 0.213D-01-0.340D+00 0.131D+01
 Coeff-En:   0.000D+00 0.000D+00 0.000D+00 0.000D+00 0.100D+01
 Coeff:      0.109D-02 0.375D-02 0.213D-01-0.340D+00 0.131D+01
 Gap=     0.509 Goal=   None    Shift=    0.000
 Gap=     0.503 Goal=   None    Shift=    0.000
 RMSDP=1.63D-05 MaxDP=5.13D-04 DE=-3.12D-05 OVMax= 1.29D-03

 Cycle   6  Pass 1  IDiag  1:
 RMSU=  2.44D-06    CP:  7.45D-01  2.28D+00  1.34D+00  1.21D+00  1.46D+00
 FoFJK:  IHMeth= 1 ICntrl=     0 DoSepK=T KAlg= 1 I1Cent= 0 FoldK=F
 E= -40.8832756960618     Delta-E=       -0.000001036298 Rises=F Damp=F
 DIIS: error= 4.01D-05 at cycle   6 NSaved=   6.
 NSaved= 6 IEnMin= 6 EnMin= -40.8832756960618     IErMin= 6 ErrMin= 4.01D-05
 ErrMax= 4.01D-05 EMaxC= 1.00D-01 BMatC= 5.17D-08 BMatP= 8.21D-07
 IDIUse=1 WtCom= 1.00D+00 WtEn= 0.00D+00
 Coeff-Com: -0.200D-03-0.140D-02-0.378D-02 0.909D-01-0.503D+00 0.142D+01
 Coeff:     -0.200D-03-0.140D-02-0.378D-02 0.909D-01-0.503D+00 0.142D+01
 Gap=     0.509 Goal=   None    Shift=    0.000
 Gap=     0.503 Goal=   None    Shift=    0.000
 RMSDP=3.13D-06 MaxDP=6.87D-05 DE=-1.04D-06 OVMax= 3.27D-04

 Cycle   7  Pass 1  IDiag  1:
 RMSU=  8.88D-07    CP:  7.45D-01  2.28D+00  1.34D+00  1.21D+00  1.51D+00
                    CP:  1.63D+00
 FoFJK:  IHMeth= 1 ICntrl=     0 DoSepK=T KAlg= 1 I1Cent= 0 FoldK=F
 E= -40.8832757574011     Delta-E=       -0.000000061339 Rises=F Damp=F
 DIIS: error= 8.38D-06 at cycle   7 NSaved=   7.
 NSaved= 7 IEnMin= 7 EnMin= -40.8832757574011     IErMin= 7 ErrMin= 8.38D-06
 ErrMax= 8.38D-06 EMaxC= 1.00D-01 BMatC= 4.03D-09 BMatP= 5.17D-08
 IDIUse=1 WtCom= 1.00D+00 WtEn= 0.00D+00
 Coeff-Com: -0.548D-04-0.735D-05-0.482D-03 0.527D-02 0.386D-02-0.219D+00
 Coeff-Com:  0.121D+01
 Coeff:     -0.548D-04-0.735D-05-0.482D-03 0.527D-02 0.386D-02-0.219D+00
 Coeff:      0.121D+01
 Gap=     0.509 Goal=   None    Shift=    0.000
 Gap=     0.503 Goal=   None    Shift=    0.000
 RMSDP=7.06D-07 MaxDP=1.41D-05 DE=-6.13D-08 OVMax= 5.14D-05

 Cycle   8  Pass 1  IDiag  1:
 RMSU=  1.71D-07    CP:  7.45D-01  2.28D+00  1.34D+00  1.21D+00  1.51D+00
                    CP:  1.77D+00  1.41D+00
 FoFJK:  IHMeth= 1 ICntrl=     0 DoSepK=T KAlg= 1 I1Cent= 0 FoldK=F
 E= -40.8832757607070     Delta-E=       -0.000000003306 Rises=F Damp=F
 DIIS: error= 3.03D-06 at cycle   8 NSaved=   8.
 NSaved= 8 IEnMin= 8 EnMin= -40.8832757607070     IErMin= 8 ErrMin= 3.03D-06
 ErrMax= 3.03D-06 EMaxC= 1.00D-01 BMatC= 4.92D-10 BMatP= 4.03D-09
 IDIUse=1 WtCom= 1.00D+00 WtEn= 0.00D+00
 Coeff-Com:  0.344D-04 0.176D-03 0.582D-03-0.125D-01 0.642D-01-0.128D+00
 Coeff-Com: -0.254D+00 0.133D+01
 Coeff:      0.344D-04 0.176D-03 0.582D-03-0.125D-01 0.642D-01-0.128D+00
 Coeff:     -0.254D+00 0.133D+01
 Gap=     0.509 Goal=   None    Shift=    0.000
 Gap=     0.503 Goal=   None    Shift=    0.000
 RMSDP=2.72D-07 MaxDP=6.71D-06 DE=-3.31D-09 OVMax= 1.69D-05

 Cycle   9  Pass 1  IDiag  1:
 RMSU=  5.10D-08    CP:  7.45D-01  2.28D+00  1.34D+00  1.21D+00  1.50D+00
                    CP:  1.81D+00  1.57D+00  1.58D+00
 FoFJK:  IHMeth= 1 ICntrl=     0 DoSepK=T KAlg= 1 I1Cent= 0 FoldK=F
 E= -40.8832757611117     Delta-E=       -0.000000000405 Rises=F Damp=F
 DIIS: error= 5.85D-07 at cycle   9 NSaved=   9.
 NSaved= 9 IEnMin= 9 EnMin= -40.8832757611117     IErMin= 9 ErrMin= 5.85D-07
 ErrMax= 5.85D-07 EMaxC= 1.00D-01 BMatC= 2.54D-11 BMatP= 4.92D-10
 IDIUse=1 WtCom= 1.00D+00 WtEn= 0.00D+00
 Coeff-Com: -0.167D-05-0.457D-04-0.124D-03 0.287D-02-0.168D-01 0.452D-01
 Coeff-Com:  0.184D-03-0.366D+00 0.133D+01
 Coeff:     -0.167D-05-0.457D-04-0.124D-03 0.287D-02-0.168D-01 0.452D-01
 Coeff:      0.184D-03-0.366D+00 0.133D+01
 Gap=     0.509 Goal=   None    Shift=    0.000
 Gap=     0.503 Goal=   None    Shift=    0.000
 RMSDP=6.84D-08 MaxDP=1.75D-06 DE=-4.05D-10 OVMax= 3.50D-06

 Cycle  10  Pass 1  IDiag  1:
 RMSU=  1.82D-08    CP:  7.45D-01  2.28D+00  1.34D+00  1.21D+00  1.50D+00
                    CP:  1.81D+00  1.58D+00  1.70D+00  1.47D+00
 FoFJK:  IHMeth= 1 ICntrl=     0 DoSepK=T KAlg= 1 I1Cent= 0 FoldK=F
 E= -40.8832757611331     Delta-E=       -0.000000000021 Rises=F Damp=F
 DIIS: error= 1.08D-07 at cycle  10 NSaved=  10.
 NSaved=10 IEnMin=10 EnMin= -40.8832757611331     IErMin=10 ErrMin= 1.08D-07
 ErrMax= 1.08D-07 EMaxC= 1.00D-01 BMatC= 1.28D-12 BMatP= 2.54D-11
 IDIUse=1 WtCom= 1.00D+00 WtEn= 0.00D+00
 Coeff-Com: -0.111D-05 0.116D-04 0.226D-04-0.633D-03 0.404D-02-0.125D-01
 Coeff-Com:  0.105D-01 0.847D-01-0.519D+00 0.143D+01
 Coeff:     -0.111D-05 0.116D-04 0.226D-04-0.633D-03 0.404D-02-0.125D-01
 Coeff:      0.105D-01 0.847D-01-0.519D+00 0.143D+01
 Gap=     0.509 Goal=   None    Shift=    0.000
 Gap=     0.503 Goal=   None    Shift=    0.000
 RMSDP=1.70D-08 MaxDP=4.06D-07 DE=-2.15D-11 OVMax= 7.37D-07

 Cycle  11  Pass 1  IDiag  1:
 RMSU=  3.93D-09    CP:  7.45D-01  2.28D+00  1.34D+00  1.21D+00  1.51D+00
                    CP:  1.81D+00  1.58D+00  1.71D+00  1.57D+00  1.43D+00
 FoFJK:  IHMeth= 1 ICntrl=     0 DoSepK=T KAlg= 1 I1Cent= 0 FoldK=F
 E= -40.8832757611344     Delta-E=       -0.000000000001 Rises=F Damp=F
 DIIS: error= 2.55D-08 at cycle  11 NSaved=  11.
 NSaved=11 IEnMin=11 EnMin= -40.8832757611344     IErMin=11 ErrMin= 2.55D-08
 ErrMax= 2.55D-08 EMaxC= 1.00D-01 BMatC= 9.87D-14 BMatP= 1.28D-12
 IDIUse=1 WtCom= 1.00D+00 WtEn= 0.00D+00
 Coeff-Com:  0.534D-06-0.356D-05-0.370D-05 0.163D-03-0.110D-02 0.361D-02
 Coeff-Com: -0.523D-02-0.186D-01 0.157D+00-0.625D+00 0.149D+01
 Coeff:      0.534D-06-0.356D-05-0.370D-05 0.163D-03-0.110D-02 0.361D-02
 Coeff:     -0.523D-02-0.186D-01 0.157D+00-0.625D+00 0.149D+01
 Gap=     0.509 Goal=   None    Shift=    0.000
 Gap=     0.503 Goal=   None    Shift=    0.000
 RMSDP=4.27D-09 MaxDP=6.20D-08 DE=-1.27D-12 OVMax= 1.66D-07

 SCF Done:  E(ULC-B+HF-LYP) =  -40.8832757611     A.U. after   11 cycles
             Convg  =    0.4271D-08             -V/T =  2.0050
 <Sx>= 0.0000 <Sy>= 0.0000 <Sz>= 0.5000 <S**2>= 0.7503 S= 0.5001
 <L.S>= 0.000000000000E+00
 KE= 4.068128191088D+01 PE=-1.243607125454D+02 EE= 2.769110346735D+01
 Annihilation of the first spin contaminant:
 S**2 before annihilation     0.7503,   after     0.7500
 Leave Link  502 at Wed Nov  3 01:21:03 2010, MaxMem=  786432000 cpu:     256.6
 (Enter /share/apps/G09A02/g09/l601.exe)
 Copying SCF densities to generalized density rwf, IOpCl= 1 IROHF=0.

 **********************************************************************

            Population analysis using the SCF density.

 **********************************************************************

 Alpha  occ. eigenvalues --  -10.11376  -0.86055  -0.53526  -0.52572  -0.52572
 Alpha  occ. eigenvalues --   -0.44323
 Alpha virt. eigenvalues --    0.06541   0.09549   0.09549   0.11065   0.22604
 Alpha virt. eigenvalues --    0.22604   0.25279   0.26789   0.35586   0.36573
 Alpha virt. eigenvalues --    0.36573   0.41863   0.41863   0.44853   0.64447
 Alpha virt. eigenvalues --    0.64447   0.68000   0.69390   0.69390   0.70535
 Alpha virt. eigenvalues --    0.76942   0.80222   0.80222   0.80728   0.98513
 Alpha virt. eigenvalues --    0.99140   0.99885   0.99885   1.10249   1.10250
 Alpha virt. eigenvalues --    1.25422   1.25422   1.32439   1.40882   1.40882
 Alpha virt. eigenvalues --    1.44073   1.69388   2.06596   2.06596   2.07210
 Alpha virt. eigenvalues --    2.07731   2.07731   2.39899   2.54255   2.78720
 Alpha virt. eigenvalues --    2.78720   2.81317   3.08950   3.08950   3.08965
 Alpha virt. eigenvalues --    3.43794   3.43794   3.46000   3.65015   3.65074
 Alpha virt. eigenvalues --    3.65074   3.81525   3.81525   4.03828   4.09135
 Alpha virt. eigenvalues --    4.31087   4.31088   4.34025   4.35566   4.35566
 Alpha virt. eigenvalues --    4.58713   4.58725   4.58725   5.04047   5.89291
 Alpha virt. eigenvalues --    5.89291   5.89425   7.30229   7.30229   7.91379
 Alpha virt. eigenvalues --    7.91379   7.92525  24.29087
  Beta  occ. eigenvalues --  -10.11330  -0.85916  -0.52574  -0.52541  -0.52541
  Beta virt. eigenvalues --   -0.02233   0.06919   0.09438   0.09438   0.11571
  Beta virt. eigenvalues --    0.22604   0.22604   0.25692   0.27027   0.36573
  Beta virt. eigenvalues --    0.36573   0.38745   0.41824   0.41824   0.48270
  Beta virt. eigenvalues --    0.64609   0.64609   0.67861   0.70929   0.73329
  Beta virt. eigenvalues --    0.73329   0.77960   0.80214   0.80214   0.81169
  Beta virt. eigenvalues --    0.99140   0.99773   0.99977   0.99977   1.10255
  Beta virt. eigenvalues --    1.10255   1.25429   1.25429   1.32761   1.40904
  Beta virt. eigenvalues --    1.40904   1.44606   1.69581   2.06652   2.06652
  Beta virt. eigenvalues --    2.07807   2.07807   2.08157   2.53137   2.60529
  Beta virt. eigenvalues --    2.78764   2.78764   2.81548   3.08984   3.09081
  Beta virt. eigenvalues --    3.09081   3.43874   3.43874   3.46234   3.65186
  Beta virt. eigenvalues --    3.65186   3.66087   3.96841   3.96841   4.07273
  Beta virt. eigenvalues --    4.18727   4.31113   4.31113   4.34912   4.35558
  Beta virt. eigenvalues --    4.35558   4.58729   4.58753   4.58753   5.04240
  Beta virt. eigenvalues --    5.89319   5.89319   5.89517   7.30366   7.30366
  Beta virt. eigenvalues --    7.91463   7.91463   7.92714  24.29150
          Condensed to atoms (all electrons):
              1          2          3          4          5          6
     1  C    5.086248   0.392427   0.402351   0.402351   0.402351   0.001193
     2  H    0.392427   0.478635  -0.016894  -0.016894  -0.016894  -0.006886
     3  H    0.402351  -0.016894   0.482739  -0.017317  -0.017317   0.000026
     4  H    0.402351  -0.016894  -0.017317   0.482738  -0.017317   0.000026
     5  H    0.402351  -0.016894  -0.017317  -0.017317   0.482738   0.000026
     6  H    0.001193  -0.006886   0.000026   0.000026   0.000026   1.004440
 Mulliken atomic charges:
              1
     1  C   -0.686921
     2  H    0.186507
     3  H    0.166412
     4  H    0.166413
     5  H    0.166413
     6  H    0.001176
 Sum of Mulliken atomic charges =   0.00000
 Mulliken charges with hydrogens summed into heavy atoms:
              1
     1  C    0.000000
 Sum of Mulliken charges with hydrogens summed into heavy atoms =   0.00000
          Atomic-Atomic Spin Densities.
              1          2          3          4          5          6
     1  C    0.032109   0.003367  -0.000321  -0.000321  -0.000321  -0.001775
     2  H    0.003367  -0.015171   0.000817   0.000817   0.000817  -0.011975
     3  H   -0.000321   0.000817  -0.000474  -0.000174  -0.000174   0.000126
     4  H   -0.000321   0.000817  -0.000174  -0.000475  -0.000174   0.000126
     5  H   -0.000321   0.000817  -0.000174  -0.000174  -0.000475   0.000126
     6  H   -0.001775  -0.011975   0.000126   0.000126   0.000126   1.002565
 Mulliken atomic spin densities:
              1
     1  C    0.032738
     2  H   -0.021328
     3  H   -0.000200
     4  H   -0.000200
     5  H   -0.000200
     6  H    0.989191
 Sum of Mulliken atomic spin densities =   1.00000
 Electronic spatial extent (au):  <R**2>=             76.0395
 Charge=              0.0000 electrons
 Dipole moment (field-independent basis, Debye):
    X=              0.0000    Y=              0.0000    Z=             -0.0269  Tot=              0.0269
 Quadrupole moment (field-independent basis, Debye-Ang):
   XX=             -9.9339   YY=             -9.9339   ZZ=            -10.0349
   XY=              0.0000   XZ=              0.0000   YZ=              0.0000
 Traceless Quadrupole moment (field-independent basis, Debye-Ang):
   XX=              0.0337   YY=              0.0337   ZZ=             -0.0673
   XY=              0.0000   XZ=              0.0000   YZ=              0.0000
 Octapole moment (field-independent basis, Debye-Ang**2):
  XXX=              0.6636  YYY=              0.0000  ZZZ=            -13.1001  XYY=             -0.6636
  XXY=              0.0000  XXZ=             -5.0461  XZZ=              0.0000  YZZ=              0.0000
  YYZ=             -5.0461  XYZ=              0.0000
 Hexadecapole moment (field-independent basis, Debye-Ang**3):
 XXXX=            -18.4661 YYYY=            -18.4661 ZZZZ=           -107.2924 XXXY=              0.0000
 XXXZ=             -0.4227 YYYX=              0.0000 YYYZ=              0.0000 ZZZX=              0.0000
 ZZZY=              0.0000 XXYY=             -6.1554 XXZZ=            -21.1868 YYZZ=            -21.1868
 XXYZ=              0.0000 YYXZ=              0.4227 ZZXY=              0.0000
 N-N= 1.510505140607D+01 E-N=-1.851639500738D+02  KE= 6.075766957258D+01
                          Isotropic Fermi Contact Couplings
        Atom                 a.u.       MegaHertz       Gauss      10(-4) cm-1
     1  C(13)              0.01122      12.60987       4.49951       4.20620
     2  H(1)               0.00011       0.48197       0.17198       0.16077
     3  H(1)              -0.00014      -0.62126      -0.22168      -0.20723
     4  H(1)              -0.00014      -0.62121      -0.22166      -0.20721
     5  H(1)              -0.00014      -0.62121      -0.22166      -0.20721
     6  H(1)               0.28641    1280.23507     456.81969     427.04045
 --------------------------------------------------------
       Center         ----  Spin Dipole Couplings  ----
                      3XX-RR        3YY-RR        3ZZ-RR
 --------------------------------------------------------
     1   Atom       -0.020724     -0.020724      0.041448
     2   Atom       -0.019128     -0.019128      0.038256
     3   Atom       -0.000448     -0.004405      0.004852
     4   Atom       -0.003415     -0.001437      0.004852
     5   Atom       -0.003415     -0.001437      0.004852
     6   Atom        0.000535      0.000535     -0.001071
 --------------------------------------------------------
                        XY            XZ            YZ
 --------------------------------------------------------
     1   Atom        0.000000      0.000000      0.000000
     2   Atom        0.000000      0.000000      0.000000
     3   Atom        0.000000     -0.003105      0.000000
     4   Atom        0.001713      0.001552      0.002689
     5   Atom       -0.001713      0.001552     -0.002689
     6   Atom        0.000000      0.000000      0.000000
 --------------------------------------------------------


 ---------------------------------------------------------------------------------
              Anisotropic Spin Dipole Couplings in Principal Axis System
 ---------------------------------------------------------------------------------

       Atom             a.u.   MegaHertz   Gauss  10(-4) cm-1        Axes

              Baa    -0.0207    -2.781    -0.992    -0.928  0.0000  1.0000  0.0000
     1 C(13)  Bbb    -0.0207    -2.781    -0.992    -0.928  1.0000  0.0000  0.0000
              Bcc     0.0414     5.562     1.985     1.855  0.0000  0.0000  1.0000
 
              Baa    -0.0191   -10.206    -3.642    -3.404  1.0000  0.0000  0.0000
     2 H(1)   Bbb    -0.0191   -10.206    -3.642    -3.404  0.0000  1.0000  0.0000
              Bcc     0.0383    20.412     7.283     6.809  0.0000  0.0000  1.0000
 
              Baa    -0.0044    -2.350    -0.839    -0.784  0.0000  1.0000  0.0000
     3 H(1)   Bbb    -0.0019    -1.003    -0.358    -0.335  0.9081  0.0000  0.4188
              Bcc     0.0063     3.353     1.196     1.118 -0.4188  0.0000  0.9081
 
              Baa    -0.0044    -2.350    -0.839    -0.784  0.8660 -0.5000  0.0000
     4 H(1)   Bbb    -0.0019    -1.003    -0.358    -0.335  0.4540  0.7864 -0.4188
              Bcc     0.0063     3.353     1.196     1.118  0.2094  0.3627  0.9081
 
              Baa    -0.0044    -2.350    -0.839    -0.784  0.8660  0.5000  0.0000
     5 H(1)   Bbb    -0.0019    -1.003    -0.358    -0.335 -0.4540  0.7864  0.4188
              Bcc     0.0063     3.353     1.196     1.118  0.2094 -0.3627  0.9081
 
              Baa    -0.0011    -0.571    -0.204    -0.191  0.0000  0.0000  1.0000
     6 H(1)   Bbb     0.0005     0.286     0.102     0.095  1.0000  0.0000  0.0000
              Bcc     0.0005     0.286     0.102     0.095  0.0000  1.0000  0.0000
 

 ---------------------------------------------------------------------------------

 No NMR shielding tensors so no spin-rotation constants.
 Leave Link  601 at Wed Nov  3 01:21:04 2010, MaxMem=  786432000 cpu:       4.2
 (Enter /share/apps/G09A02/g09/l9999.exe)
 1\1\GINC-COMPUTE-0-7\SP\ULC-BLYP\6-311+G(3df,2p)\C1H5(2)\WENXINZY\03-N
 ov-2010\0\\#p lc-blyp/6-311+g(3df,2p) nosymm scf=tight\\23 H_CH4\\0,2\
 C\H,1,1.0900881\H,1,1.0894155,2,109.4598832\H,1,1.0894155,2,109.459883
 2,3,120.,0\H,1,1.0894155,2,109.4598832,3,-120.,0\H,2,2.1222183,1,180.,
 3,0.,0\\Version=EM64L-G09RevA.02\HF=-40.8832758\S2=0.750295\S2-1=0.\S2
 A=0.75\RMSD=4.271e-09\Dipole=0.0000002,0.,-0.010568\Quadrupole=0.02503
 ,0.025033,-0.050063,0.,-0.0000003,0.\PG=C03V [C3(H1H1C1),3SGV(H1)]\\@


 MEMORIES ARE LIKE AN ENGLISH GRAMMER LESSON -
 PRESENT TENSE, AND PAST PERFECT.
 Job cpu time:  0 days  0 hours  4 minutes 30.9 seconds.
 File lengths (MBytes):  RWF=      9 Int=      0 D2E=      0 Chk=      1 Scr=      1
 Normal termination of Gaussian 09 at Wed Nov  3 01:21:04 2010.
