 Entering Gaussian System, Link 0=/share/apps/G09A02/g09/g09
 Input=./.script12553/Job_H2_CH3_32.com
 Output=./.script12553/Job_H2_CH3_32.log
 Initial command:
 /share/apps/G09A02/g09/l1.exe /state/partition1/wenxinzy/scratch/Gau-20819.inp -scrdir=/state/partition1/wenxinzy/scratch/
 Default is to use a total of   8 processors:
                                8 via shared-memory
                                1 via Linda
 Entering Link 1 = /share/apps/G09A02/g09/l1.exe PID=     20820.
  
 Copyright (c) 1988,1990,1992,1993,1995,1998,2003,2009, Gaussian, Inc.
                  All Rights Reserved.
  
 This is part of the Gaussian(R) 09 program.  It is based on
 the Gaussian(R) 03 system (copyright 2003, Gaussian, Inc.),
 the Gaussian(R) 98 system (copyright 1998, Gaussian, Inc.),
 the Gaussian(R) 94 system (copyright 1995, Gaussian, Inc.),
 the Gaussian 92(TM) system (copyright 1992, Gaussian, Inc.),
 the Gaussian 90(TM) system (copyright 1990, Gaussian, Inc.),
 the Gaussian 88(TM) system (copyright 1988, Gaussian, Inc.),
 the Gaussian 86(TM) system (copyright 1986, Carnegie Mellon
 University), and the Gaussian 82(TM) system (copyright 1983,
 Carnegie Mellon University). Gaussian is a federally registered
 trademark of Gaussian, Inc.
  
 This software contains proprietary and confidential information,
 including trade secrets, belonging to Gaussian, Inc.
  
 This software is provided under written license and may be
 used, copied, transmitted, or stored only in accord with that
 written license.
  
 The following legend is applicable only to US Government
 contracts under FAR:
  
                    RESTRICTED RIGHTS LEGEND
  
 Use, reproduction and disclosure by the US Government is
 subject to restrictions as set forth in subparagraphs (a)
 and (c) of the Commercial Computer Software - Restricted
 Rights clause in FAR 52.227-19.
  
 Gaussian, Inc.
 340 Quinnipiac St., Bldg. 40, Wallingford CT 06492
  
  
 ---------------------------------------------------------------
 Warning -- This program may not be used in any manner that
 competes with the business of Gaussian, Inc. or will provide
 assistance to any competitor of Gaussian, Inc.  The licensee
 of this program is prohibited from giving any competitor of
 Gaussian, Inc. access to this program.  By using this program,
 the user acknowledges that Gaussian, Inc. is engaged in the
 business of creating and licensing software in the field of
 computational chemistry and represents and warrants to the
 licensee that it is not a competitor of Gaussian, Inc. and that
 it will not use this program in any manner prohibited above.
 ---------------------------------------------------------------
  

 Cite this work as:
 Gaussian 09, Revision A.02,
 M. J. Frisch, G. W. Trucks, H. B. Schlegel, G. E. Scuseria, 
 M. A. Robb, J. R. Cheeseman, G. Scalmani, V. Barone, B. Mennucci, 
 G. A. Petersson, H. Nakatsuji, M. Caricato, X. Li, H. P. Hratchian, 
 A. F. Izmaylov, J. Bloino, G. Zheng, J. L. Sonnenberg, M. Hada, 
 M. Ehara, K. Toyota, R. Fukuda, J. Hasegawa, M. Ishida, T. Nakajima, 
 Y. Honda, O. Kitao, H. Nakai, T. Vreven, J. A. Montgomery, Jr., 
 J. E. Peralta, F. Ogliaro, M. Bearpark, J. J. Heyd, E. Brothers, 
 K. N. Kudin, V. N. Staroverov, R. Kobayashi, J. Normand, 
 K. Raghavachari, A. Rendell, J. C. Burant, S. S. Iyengar, J. Tomasi, 
 M. Cossi, N. Rega, J. M. Millam, M. Klene, J. E. Knox, J. B. Cross, 
 V. Bakken, C. Adamo, J. Jaramillo, R. Gomperts, R. E. Stratmann, 
 O. Yazyev, A. J. Austin, R. Cammi, C. Pomelli, J. W. Ochterski, 
 R. L. Martin, K. Morokuma, V. G. Zakrzewski, G. A. Voth, 
 P. Salvador, J. J. Dannenberg, S. Dapprich, A. D. Daniels, 
 O. Farkas, J. B. Foresman, J. V. Ortiz, J. Cioslowski, 
 and D. J. Fox, Gaussian, Inc., Wallingford CT, 2009.
 
 ******************************************
 Gaussian 09:  EM64L-G09RevA.02 11-Jun-2009
                 3-Nov-2010 
 ******************************************
 %chk=/state/partition1/wenxinzy/scratch/H2_CH3_32.chk
 %nproc=8
 Will use up to    8 processors via shared memory.
 %mem=6000mb
 -------------------------------------------
 #p lc-blyp/6-311+g(3df,2p) nosymm scf=tight
 -------------------------------------------
 1/38=1/1;
 2/12=2,15=1,17=6,18=5,40=1/2;
 3/5=4,6=6,7=216,11=2,16=1,25=1,30=1,74=1000402/1,2,3;
 4//1;
 5/5=2,32=2,38=5/2;
 6/7=2,8=2,9=2,10=2,28=1/1;
 99/5=1,9=1/99;
 Leave Link    1 at Wed Nov  3 01:54:10 2010, MaxMem=  786432000 cpu:       0.3
 (Enter /share/apps/G09A02/g09/l101.exe)
 ---------
 33 H2+CH3
 ---------
 Symbolic Z-matrix:
 Charge =  0 Multiplicity = 2
 C
 H1                   C    R1
 H2                   C    R2       H1   A1
 H3                   C    R2       H1   A1       H2    120.     0
 H4                   C    R2       H1   A1       H2   -120.     0
 H5                   H1   R3       C     180.     H2    0.       0
       Variables:
  R1                    3.0478                   
  R2                    1.07923                  
  A1                   90.19974                  
  R3                    0.74348                  
 
 NAtoms=      6 NQM=      6 NQMF=      0 NMic=      0 NMicF=      0 NTot=      6.
                    Isotopes and Nuclear Properties:
 (Nuclear quadrupole moments (NQMom) in fm**2, nuclear magnetic moments (NMagM)
  in nuclear magnetons)

  Atom         1           2           3           4           5           6
 IAtWgt=          12           1           1           1           1           1
 AtmWgt=  12.0000000   1.0078250   1.0078250   1.0078250   1.0078250   1.0078250
 NucSpn=           0           1           1           1           1           1
 AtZEff=   0.0000000   0.0000000   0.0000000   0.0000000   0.0000000   0.0000000
 NQMom=    0.0000000   0.0000000   0.0000000   0.0000000   0.0000000   0.0000000
 NMagM=    0.0000000   2.7928460   2.7928460   2.7928460   2.7928460   2.7928460
 Leave Link  101 at Wed Nov  3 01:54:11 2010, MaxMem=  786432000 cpu:       1.0
 (Enter /share/apps/G09A02/g09/l202.exe)
                          Input orientation:                          
 ---------------------------------------------------------------------
 Center     Atomic      Atomic             Coordinates (Angstroms)
 Number     Number       Type             X           Y           Z
 ---------------------------------------------------------------------
      1          6           0        0.000000    0.000000    0.000000
      2          1           0        0.000000    0.000000    3.047803
      3          1           0        1.079221    0.000000   -0.003762
      4          1           0       -0.539611   -0.934633   -0.003762
      5          1           0       -0.539611    0.934633   -0.003762
      6          1           0        0.000000    0.000000    3.791287
 ---------------------------------------------------------------------
                    Distance matrix (angstroms):
                    1          2          3          4          5
     1  C    0.000000
     2  H    3.047803   0.000000
     3  H    1.079228   3.236784   0.000000
     4  H    1.079228   3.236784   1.869266   0.000000
     5  H    1.079228   3.236784   1.869266   1.869266   0.000000
     6  H    3.791287   0.743483   3.945518   3.945518   3.945518
                    6
     6  H    0.000000
 Symmetry turned off by external request.
 Stoichiometry    CH5(2)
 Framework group  C3V[C3(HHC),3SGV(H)]
 Deg. of freedom     4
 Full point group                 C3V     NOp   6
 Rotational constants (GHZ):    143.5125591     22.1366784     22.1366784
 Leave Link  202 at Wed Nov  3 01:54:11 2010, MaxMem=  786432000 cpu:       0.1
 (Enter /share/apps/G09A02/g09/l301.exe)
 Standard basis: 6-311+G(3df,2p) (5D, 7F)
 Ernie: Thresh=  0.10000D-02 Tol=  0.10000D-05 Strict=F.
 Integral buffers will be    131072 words long.
 Raffenetti 2 integral format.
 Two-electron integral symmetry is turned off.
    84 basis functions,   113 primitive gaussians,    90 cartesian basis functions
     6 alpha electrons        5 beta electrons
       nuclear repulsion energy        13.1590130251 Hartrees.
 IExCor=10402 DFT=T Ex=LC-B+HF Corr=LYP ExCW=0 ScaHFX=  1.000000
 ScaDFX=  1.000000  1.000000  1.000000  1.000000 ScalE2=  1.000000  1.000000
 IRadAn=      0 IRanWt=     -1 IRanGd=            0 ICorTp=0
  HFx wShort=  0.000000 wLong=  0.470000 cFull=  0.000000 cShort=  0.000000 cLong=  1.000000
  DFx wShort=  0.000000 wLong=  0.470000 cFull=  0.000000 cShort=  0.000000 cLong=  1.000000
 NAtoms=    6 NActive=    6 NUniq=    6 SFac= 7.50D-01 NAtFMM=   80 NAOKFM=F Big=F
 Leave Link  301 at Wed Nov  3 01:54:11 2010, MaxMem=  786432000 cpu:       0.7
 (Enter /share/apps/G09A02/g09/l302.exe)
 NPDir=0 NMtPBC=     1 NCelOv=     1 NCel=       1 NClECP=     1 NCelD=      1
         NCelK=      1 NCelE2=     1 NClLst=     1 CellRange=     0.0.
 One-electron integrals computed using PRISM.
 NBasis=    84 RedAO= T  NBF=    84
 NBsUse=    84 1.00D-06 NBFU=    84
 Precomputing XC quadrature grid using
 IXCGrd= 2 IRadAn=           0 IRanWt=          -1 IRanGd=           0 AccXCQ= 1.00D-10.
 NRdTot=     384 NPtTot=       48302 NUsed=       51081 NTot=       51113
 NSgBfM=    90    90    90    90    90 NAtAll=     6     6.
 Leave Link  302 at Wed Nov  3 01:54:11 2010, MaxMem=  786432000 cpu:       2.5
 (Enter /share/apps/G09A02/g09/l303.exe)
 DipDrv:  MaxL=1.
 Leave Link  303 at Wed Nov  3 01:54:11 2010, MaxMem=  786432000 cpu:       0.4
 (Enter /share/apps/G09A02/g09/l401.exe)
 Harris functional with IExCor=10402 diagonalized for initial guess.
 ExpMin= 4.38D-02 ExpMax= 4.56D+03 ExpMxC= 6.82D+02 IAcc=2 IRadAn=         0 AccDes= 0.00D+00
 HarFok:  IExCor=10402 AccDes= 0.00D+00 IRadAn=         0 IDoV= 1
 ScaDFX=  1.000000  1.000000  1.000000  1.000000
 FoFCou: FMM=F IPFlag=           0 FMFlag=      100000 FMFlg1=           0
         NFxFlg=           0 DoJE=T BraDBF=F KetDBF=T FulRan=T
         Omega=  0.000000  0.000000  1.000000  0.000000  0.000000 ICntrl=     500 IOpCl=  0
         NMat0=    1 NMatS0=    1 NMatT0=    0 NMatD0=    1 NMtDS0=    0 NMtDT0=    0
         I1Cent=           4 NGrid=           0.
 Symmetry not used in FoFCou.
 Harris En= -38.5361504806691    
 Initial guess <Sx>= 0.0000 <Sy>= 0.0000 <Sz>= 0.5000 <S**2>= 0.7500 S= 0.5000
 Leave Link  401 at Wed Nov  3 01:54:12 2010, MaxMem=  786432000 cpu:       3.7
 (Enter /share/apps/G09A02/g09/l502.exe)
 UHF open shell SCF:
 Requested convergence on RMS density matrix=1.00D-08 within 128 cycles.
 Requested convergence on MAX density matrix=1.00D-06.
 Requested convergence on             energy=1.00D-06.
 No special actions if energy rises.
 Using DIIS extrapolation, IDIIS=  1040.
 Two-electron integral symmetry not used.
        51014 words used for storage of precomputed grid.
 IEnd=       94732 IEndB=       94732 NGot=   786432000 MDV=   786362099
 LenX=   786362099 LenY=   786353558
 Fock matrices will be formed incrementally for  20 cycles.

 Cycle   1  Pass 1  IDiag  1:
 FoFJK:  IHMeth= 1 ICntrl=     0 DoSepK=T KAlg= 1 I1Cent= 0 FoldK=F
 FoFCou: FMM=F IPFlag=           0 FMFlag=      100000 FMFlg1=           0
         NFxFlg=           0 DoJE=T BraDBF=F KetDBF=F FulRan=T
         Omega=  0.000000  0.000000  1.000000  0.000000  0.000000 ICntrl=     500 IOpCl=  0
         NMat0=    1 NMatS0=    1 NMatT0=    0 NMatD0=    1 NMtDS0=    0 NMtDT0=    0
         I1Cent=           0 NGrid=           0.
 Symmetry not used in FoFCou.
 E= -40.8563024685625    
 DIIS: error= 2.09D-02 at cycle   1 NSaved=   1.
 NSaved= 1 IEnMin= 1 EnMin= -40.8563024685625     IErMin= 1 ErrMin= 2.09D-02
 ErrMax= 2.09D-02 EMaxC= 1.00D-01 BMatC= 6.03D-02 BMatP= 6.03D-02
 IDIUse=3 WtCom= 7.91D-01 WtEn= 2.09D-01
 Coeff-Com:  0.100D+01
 Coeff-En:   0.100D+01
 Coeff:      0.100D+01
 Gap=     0.390 Goal=   None    Shift=    0.000
 Gap=     0.621 Goal=   None    Shift=    0.000
 GapD=    0.390 DampG=1.000 DampE=0.500 DampFc=0.5000 IDamp=-1.
 Damping current iteration by 5.00D-01
 RMSDP=1.45D-03 MaxDP=6.44D-02              OVMax= 5.26D-02

 Cycle   2  Pass 1  IDiag  1:
 RMSU=  5.34D-04    CP:  9.82D-01
 FoFJK:  IHMeth= 1 ICntrl=     0 DoSepK=T KAlg= 1 I1Cent= 0 FoldK=F
 E= -40.8649116010119     Delta-E=       -0.008609132449 Rises=F Damp=T
 DIIS: error= 9.40D-03 at cycle   2 NSaved=   2.
 NSaved= 2 IEnMin= 2 EnMin= -40.8649116010119     IErMin= 2 ErrMin= 9.40D-03
 ErrMax= 9.40D-03 EMaxC= 1.00D-01 BMatC= 9.83D-03 BMatP= 6.03D-02
 IDIUse=3 WtCom= 9.06D-01 WtEn= 9.40D-02
 Coeff-Com: -0.436D+00 0.144D+01
 Coeff-En:   0.000D+00 0.100D+01
 Coeff:     -0.395D+00 0.139D+01
 Gap=     0.430 Goal=   None    Shift=    0.000
 Gap=     0.565 Goal=   None    Shift=    0.000
 RMSDP=7.91D-04 MaxDP=2.48D-02 DE=-8.61D-03 OVMax= 4.38D-02

 Cycle   3  Pass 1  IDiag  1:
 RMSU=  4.63D-04    CP:  9.76D-01  1.87D+00
 FoFJK:  IHMeth= 1 ICntrl=     0 DoSepK=T KAlg= 1 I1Cent= 0 FoldK=F
 E= -40.8746034063893     Delta-E=       -0.009691805377 Rises=F Damp=F
 DIIS: error= 2.90D-03 at cycle   3 NSaved=   3.
 NSaved= 3 IEnMin= 3 EnMin= -40.8746034063893     IErMin= 3 ErrMin= 2.90D-03
 ErrMax= 2.90D-03 EMaxC= 1.00D-01 BMatC= 7.24D-04 BMatP= 9.83D-03
 IDIUse=3 WtCom= 9.71D-01 WtEn= 2.90D-02
 Coeff-Com: -0.660D-01-0.651D-01 0.113D+01
 Coeff-En:   0.000D+00 0.000D+00 0.100D+01
 Coeff:     -0.641D-01-0.632D-01 0.113D+01
 Gap=     0.433 Goal=   None    Shift=    0.000
 Gap=     0.563 Goal=   None    Shift=    0.000
 RMSDP=2.68D-04 MaxDP=1.02D-02 DE=-9.69D-03 OVMax= 2.23D-02

 Cycle   4  Pass 1  IDiag  1:
 RMSU=  7.07D-05    CP:  9.73D-01  2.14D+00  1.33D+00
 FoFJK:  IHMeth= 1 ICntrl=     0 DoSepK=T KAlg= 1 I1Cent= 0 FoldK=F
 E= -40.8751398269178     Delta-E=       -0.000536420528 Rises=F Damp=F
 DIIS: error= 1.33D-03 at cycle   4 NSaved=   4.
 NSaved= 4 IEnMin= 4 EnMin= -40.8751398269178     IErMin= 4 ErrMin= 1.33D-03
 ErrMax= 1.33D-03 EMaxC= 1.00D-01 BMatC= 5.71D-05 BMatP= 7.24D-04
 IDIUse=3 WtCom= 9.87D-01 WtEn= 1.33D-02
 Coeff-Com:  0.348D-01-0.545D-01-0.361D+00 0.138D+01
 Coeff-En:   0.000D+00 0.000D+00 0.000D+00 0.100D+01
 Coeff:      0.343D-01-0.538D-01-0.356D+00 0.138D+01
 Gap=     0.435 Goal=   None    Shift=    0.000
 Gap=     0.563 Goal=   None    Shift=    0.000
 RMSDP=1.09D-04 MaxDP=4.23D-03 DE=-5.36D-04 OVMax= 9.94D-03

 Cycle   5  Pass 1  IDiag  1:
 RMSU=  1.37D-05    CP:  9.72D-01  2.21D+00  1.46D+00  1.68D+00
 FoFJK:  IHMeth= 1 ICntrl=     0 DoSepK=T KAlg= 1 I1Cent= 0 FoldK=F
 E= -40.8752038497384     Delta-E=       -0.000064022821 Rises=F Damp=F
 DIIS: error= 2.34D-04 at cycle   5 NSaved=   5.
 NSaved= 5 IEnMin= 5 EnMin= -40.8752038497384     IErMin= 5 ErrMin= 2.34D-04
 ErrMax= 2.34D-04 EMaxC= 1.00D-01 BMatC= 3.60D-06 BMatP= 5.71D-05
 IDIUse=3 WtCom= 9.98D-01 WtEn= 2.34D-03
 Coeff-Com: -0.694D-02 0.223D-01 0.721D-01-0.537D+00 0.145D+01
 Coeff-En:   0.000D+00 0.000D+00 0.000D+00 0.000D+00 0.100D+01
 Coeff:     -0.693D-02 0.223D-01 0.719D-01-0.536D+00 0.145D+01
 Gap=     0.435 Goal=   None    Shift=    0.000
 Gap=     0.563 Goal=   None    Shift=    0.000
 RMSDP=2.35D-05 MaxDP=7.26D-04 DE=-6.40D-05 OVMax= 1.54D-03

 Cycle   6  Pass 1  IDiag  1:
 RMSU=  4.12D-06    CP:  9.72D-01  2.22D+00  1.47D+00  1.87D+00  1.70D+00
 FoFJK:  IHMeth= 1 ICntrl=     0 DoSepK=T KAlg= 1 I1Cent= 0 FoldK=F
 E= -40.8752071420447     Delta-E=       -0.000003292306 Rises=F Damp=F
 DIIS: error= 4.30D-05 at cycle   6 NSaved=   6.
 NSaved= 6 IEnMin= 6 EnMin= -40.8752071420447     IErMin= 6 ErrMin= 4.30D-05
 ErrMax= 4.30D-05 EMaxC= 1.00D-01 BMatC= 1.90D-07 BMatP= 3.60D-06
 IDIUse=1 WtCom= 1.00D+00 WtEn= 0.00D+00
 Coeff-Com:  0.770D-04-0.420D-02-0.109D-01 0.135D+00-0.546D+00 0.143D+01
 Coeff:      0.770D-04-0.420D-02-0.109D-01 0.135D+00-0.546D+00 0.143D+01
 Gap=     0.435 Goal=   None    Shift=    0.000
 Gap=     0.563 Goal=   None    Shift=    0.000
 RMSDP=4.78D-06 MaxDP=1.01D-04 DE=-3.29D-06 OVMax= 2.35D-04

 Cycle   7  Pass 1  IDiag  1:
 RMSU=  1.24D-06    CP:  9.72D-01  2.21D+00  1.47D+00  1.87D+00  1.84D+00
                    CP:  1.78D+00
 FoFJK:  IHMeth= 1 ICntrl=     0 DoSepK=T KAlg= 1 I1Cent= 0 FoldK=F
 E= -40.8752073206599     Delta-E=       -0.000000178615 Rises=F Damp=F
 DIIS: error= 1.46D-05 at cycle   7 NSaved=   7.
 NSaved= 7 IEnMin= 7 EnMin= -40.8752073206599     IErMin= 7 ErrMin= 1.46D-05
 ErrMax= 1.46D-05 EMaxC= 1.00D-01 BMatC= 1.29D-08 BMatP= 1.90D-07
 IDIUse=1 WtCom= 1.00D+00 WtEn= 0.00D+00
 Coeff-Com:  0.818D-03-0.128D-02-0.264D-02 0.112D-01 0.118D-01-0.344D+00
 Coeff-Com:  0.132D+01
 Coeff:      0.818D-03-0.128D-02-0.264D-02 0.112D-01 0.118D-01-0.344D+00
 Coeff:      0.132D+01
 Gap=     0.435 Goal=   None    Shift=    0.000
 Gap=     0.563 Goal=   None    Shift=    0.000
 RMSDP=1.52D-06 MaxDP=3.53D-05 DE=-1.79D-07 OVMax= 7.58D-05

 Cycle   8  Pass 1  IDiag  1:
 RMSU=  2.68D-07    CP:  9.72D-01  2.21D+00  1.47D+00  1.87D+00  1.86D+00
                    CP:  2.03D+00  1.51D+00
 FoFJK:  IHMeth= 1 ICntrl=     0 DoSepK=T KAlg= 1 I1Cent= 0 FoldK=F
 E= -40.8752073322720     Delta-E=       -0.000000011612 Rises=F Damp=F
 DIIS: error= 1.45D-06 at cycle   8 NSaved=   8.
 NSaved= 8 IEnMin= 8 EnMin= -40.8752073322720     IErMin= 8 ErrMin= 1.45D-06
 ErrMax= 1.45D-06 EMaxC= 1.00D-01 BMatC= 3.08D-10 BMatP= 1.29D-08
 IDIUse=1 WtCom= 1.00D+00 WtEn= 0.00D+00
 Coeff-Com: -0.201D-04 0.244D-03 0.706D-03-0.787D-02 0.290D-01-0.599D-01
 Coeff-Com: -0.481D-01 0.109D+01
 Coeff:     -0.201D-04 0.244D-03 0.706D-03-0.787D-02 0.290D-01-0.599D-01
 Coeff:     -0.481D-01 0.109D+01
 Gap=     0.435 Goal=   None    Shift=    0.000
 Gap=     0.563 Goal=   None    Shift=    0.000
 RMSDP=2.19D-07 MaxDP=7.57D-06 DE=-1.16D-08 OVMax= 7.35D-06

 Cycle   9  Pass 1  IDiag  1:
 RMSU=  3.92D-08    CP:  9.72D-01  2.21D+00  1.47D+00  1.87D+00  1.86D+00
                    CP:  2.06D+00  1.60D+00  1.32D+00
 FoFJK:  IHMeth= 1 ICntrl=     0 DoSepK=T KAlg= 1 I1Cent= 0 FoldK=F
 E= -40.8752073324488     Delta-E=       -0.000000000177 Rises=F Damp=F
 DIIS: error= 6.07D-07 at cycle   9 NSaved=   9.
 NSaved= 9 IEnMin= 9 EnMin= -40.8752073324488     IErMin= 9 ErrMin= 6.07D-07
 ErrMax= 6.07D-07 EMaxC= 1.00D-01 BMatC= 1.81D-11 BMatP= 3.08D-10
 IDIUse=1 WtCom= 1.00D+00 WtEn= 0.00D+00
 Coeff-Com: -0.344D-04 0.804D-05-0.779D-04 0.129D-02-0.673D-02 0.261D-01
 Coeff-Com: -0.347D-01-0.234D+00 0.125D+01
 Coeff:     -0.344D-04 0.804D-05-0.779D-04 0.129D-02-0.673D-02 0.261D-01
 Coeff:     -0.347D-01-0.234D+00 0.125D+01
 Gap=     0.435 Goal=   None    Shift=    0.000
 Gap=     0.563 Goal=   None    Shift=    0.000
 RMSDP=5.32D-08 MaxDP=1.42D-06 DE=-1.77D-10 OVMax= 2.70D-06

 Cycle  10  Pass 1  IDiag  1:
 RMSU=  1.37D-08    CP:  9.72D-01  2.21D+00  1.47D+00  1.87D+00  1.86D+00
                    CP:  2.05D+00  1.61D+00  1.40D+00  1.47D+00
 FoFJK:  IHMeth= 1 ICntrl=     0 DoSepK=T KAlg= 1 I1Cent= 0 FoldK=F
 E= -40.8752073324631     Delta-E=       -0.000000000014 Rises=F Damp=F
 DIIS: error= 2.93D-07 at cycle  10 NSaved=  10.
 NSaved=10 IEnMin=10 EnMin= -40.8752073324631     IErMin=10 ErrMin= 2.93D-07
 ErrMax= 2.93D-07 EMaxC= 1.00D-01 BMatC= 2.64D-12 BMatP= 1.81D-11
 IDIUse=1 WtCom= 1.00D+00 WtEn= 0.00D+00
 Coeff-Com:  0.240D-04-0.265D-04-0.428D-05-0.140D-03 0.166D-02-0.102D-01
 Coeff-Com:  0.220D-01 0.552D-01-0.665D+00 0.160D+01
 Coeff:      0.240D-04-0.265D-04-0.428D-05-0.140D-03 0.166D-02-0.102D-01
 Coeff:      0.220D-01 0.552D-01-0.665D+00 0.160D+01
 Gap=     0.435 Goal=   None    Shift=    0.000
 Gap=     0.563 Goal=   None    Shift=    0.000
 RMSDP=2.04D-08 MaxDP=5.73D-07 DE=-1.43D-11 OVMax= 1.46D-06

 Cycle  11  Pass 1  IDiag  1:
 RMSU=  6.00D-09    CP:  9.72D-01  2.21D+00  1.47D+00  1.87D+00  1.86D+00
                    CP:  2.05D+00  1.61D+00  1.40D+00  1.68D+00  1.78D+00
 FoFJK:  IHMeth= 1 ICntrl=     0 DoSepK=T KAlg= 1 I1Cent= 0 FoldK=F
 E= -40.8752073324672     Delta-E=       -0.000000000004 Rises=F Damp=F
 DIIS: error= 9.83D-08 at cycle  11 NSaved=  11.
 NSaved=11 IEnMin=11 EnMin= -40.8752073324672     IErMin=11 ErrMin= 9.83D-08
 ErrMax= 9.83D-08 EMaxC= 1.00D-01 BMatC= 2.93D-13 BMatP= 2.64D-12
 IDIUse=1 WtCom= 1.00D+00 WtEn= 0.00D+00
 Coeff-Com: -0.805D-05 0.130D-04 0.102D-04-0.101D-03 0.102D-03 0.142D-02
 Coeff-Com: -0.612D-02 0.521D-02 0.141D+00-0.727D+00 0.159D+01
 Coeff:     -0.805D-05 0.130D-04 0.102D-04-0.101D-03 0.102D-03 0.142D-02
 Coeff:     -0.612D-02 0.521D-02 0.141D+00-0.727D+00 0.159D+01
 Gap=     0.435 Goal=   None    Shift=    0.000
 Gap=     0.563 Goal=   None    Shift=    0.000
 RMSDP=8.34D-09 MaxDP=2.77D-07 DE=-4.06D-12 OVMax= 6.18D-07

 SCF Done:  E(ULC-B+HF-LYP) =  -40.8752073325     A.U. after   11 cycles
             Convg  =    0.8343D-08             -V/T =  2.0050
 <Sx>= 0.0000 <Sy>= 0.0000 <Sz>= 0.5000 <S**2>= 0.7536 S= 0.5018
 <L.S>= 0.000000000000E+00
 KE= 4.067337513110D+01 PE=-1.203687002892D+02 EE= 2.566110480050D+01
 Annihilation of the first spin contaminant:
 S**2 before annihilation     0.7536,   after     0.7500
 Leave Link  502 at Wed Nov  3 01:54:44 2010, MaxMem=  786432000 cpu:     254.4
 (Enter /share/apps/G09A02/g09/l601.exe)
 Copying SCF densities to generalized density rwf, IOpCl= 1 IROHF=0.

 **********************************************************************

            Population analysis using the SCF density.

 **********************************************************************

 Alpha  occ. eigenvalues --  -10.14729  -0.85392  -0.56405  -0.55878  -0.55878
 Alpha  occ. eigenvalues --   -0.36629
 Alpha virt. eigenvalues --    0.06879   0.09236   0.09236   0.12802   0.16226
 Alpha virt. eigenvalues --    0.23391   0.23391   0.24073   0.35866   0.38843
 Alpha virt. eigenvalues --    0.38843   0.40350   0.40350   0.47085   0.62897
 Alpha virt. eigenvalues --    0.62897   0.63369   0.63736   0.66062   0.66062
 Alpha virt. eigenvalues --    0.71633   0.81095   0.82612   0.82612   0.94765
 Alpha virt. eigenvalues --    1.00326   1.00326   1.02025   1.12922   1.12923
 Alpha virt. eigenvalues --    1.18780   1.18780   1.21346   1.46807   1.49054
 Alpha virt. eigenvalues --    1.49054   1.61500   1.78658   1.78658   2.10980
 Alpha virt. eigenvalues --    2.14521   2.14521   2.40641   2.54741   2.58956
 Alpha virt. eigenvalues --    2.76905   2.76905   2.83768   3.05622   3.12539
 Alpha virt. eigenvalues --    3.12539   3.15621   3.20824   3.20824   3.55023
 Alpha virt. eigenvalues --    3.55024   3.72345   3.72345   3.87661   4.01943
 Alpha virt. eigenvalues --    4.27852   4.27852   4.33737   4.33737   4.35422
 Alpha virt. eigenvalues --    4.37856   4.37856   4.96581   5.35067   5.72862
 Alpha virt. eigenvalues --    5.72862   5.74743   7.15151   7.15152   7.28224
 Alpha virt. eigenvalues --    7.72589   7.72589  24.22734
  Beta  occ. eigenvalues --  -10.13309  -0.80790  -0.56249  -0.54816  -0.54816
  Beta virt. eigenvalues --    0.01494   0.06801   0.09064   0.09064   0.14838
  Beta virt. eigenvalues --    0.17206   0.23625   0.23625   0.24997   0.36118
  Beta virt. eigenvalues --    0.39999   0.39999   0.40381   0.40382   0.48765
  Beta virt. eigenvalues --    0.63011   0.63011   0.63428   0.66810   0.66810
  Beta virt. eigenvalues --    0.67718   0.71871   0.81999   0.82591   0.82591
  Beta virt. eigenvalues --    0.94730   1.00793   1.00793   1.02836   1.13060
  Beta virt. eigenvalues --    1.13060   1.18783   1.18783   1.21756   1.49573
  Beta virt. eigenvalues --    1.49577   1.49577   1.61594   1.83472   1.83472
  Beta virt. eigenvalues --    2.14145   2.15501   2.15501   2.41102   2.54944
  Beta virt. eigenvalues --    2.58977   2.78172   2.78173   2.89438   3.06021
  Beta virt. eigenvalues --    3.15486   3.15486   3.19925   3.24217   3.24217
  Beta virt. eigenvalues --    3.55101   3.55101   3.73252   3.73252   3.87886
  Beta virt. eigenvalues --    4.02344   4.27488   4.27488   4.34137   4.34137
  Beta virt. eigenvalues --    4.36133   4.38293   4.38293   4.96747   5.36026
  Beta virt. eigenvalues --    5.73449   5.73449   5.74798   7.21463   7.21465
  Beta virt. eigenvalues --    7.36238   7.74206   7.74206  24.24602
          Condensed to atoms (all electrons):
              1          2          3          4          5          6
     1  C    5.373736  -0.003795   0.401767   0.401769   0.401769  -0.005785
     2  H   -0.003795   0.587695   0.000036   0.000036   0.000036   0.422366
     3  H    0.401767   0.000036   0.448792  -0.021034  -0.021034   0.000015
     4  H    0.401769   0.000036  -0.021034   0.448788  -0.021034   0.000015
     5  H    0.401769   0.000036  -0.021034  -0.021034   0.448788   0.000015
     6  H   -0.005785   0.422366   0.000015   0.000015   0.000015   0.581912
 Mulliken atomic charges:
              1
     1  C   -0.569462
     2  H   -0.006375
     3  H    0.191458
     4  H    0.191460
     5  H    0.191460
     6  H    0.001460
 Sum of Mulliken atomic charges =   0.00000
 Mulliken charges with hydrogens summed into heavy atoms:
              1
     1  C    0.000000
 Sum of Mulliken charges with hydrogens summed into heavy atoms =   0.00000
          Atomic-Atomic Spin Densities.
              1          2          3          4          5          6
     1  C    1.058393  -0.000828   0.005125   0.005125   0.005125  -0.004349
     2  H   -0.000828  -0.005149  -0.000014  -0.000014  -0.000014   0.000502
     3  H    0.005125  -0.000014  -0.034631   0.002925   0.002925  -0.000016
     4  H    0.005125  -0.000014   0.002925  -0.034631   0.002925  -0.000016
     5  H    0.005125  -0.000014   0.002925   0.002925  -0.034631  -0.000016
     6  H   -0.004349   0.000502  -0.000016  -0.000016  -0.000016   0.011879
 Mulliken atomic spin densities:
              1
     1  C    1.068591
     2  H   -0.005518
     3  H   -0.023685
     4  H   -0.023686
     5  H   -0.023686
     6  H    0.007984
 Sum of Mulliken atomic spin densities =   1.00000
 Electronic spatial extent (au):  <R**2>=            119.2458
 Charge=              0.0000 electrons
 Dipole moment (field-independent basis, Debye):
    X=              0.0000    Y=              0.0000    Z=             -0.0651  Tot=              0.0651
 Quadrupole moment (field-independent basis, Debye-Ang):
   XX=             -9.4670   YY=             -9.4670   ZZ=            -11.0144
   XY=              0.0000   XZ=              0.0000   YZ=              0.0000
 Traceless Quadrupole moment (field-independent basis, Debye-Ang):
   XX=              0.5158   YY=              0.5158   ZZ=             -1.0317
   XY=              0.0000   XZ=              0.0000   YZ=              0.0000
 Octapole moment (field-independent basis, Debye-Ang**2):
  XXX=              0.9808  YYY=              0.0000  ZZZ=            -17.2218  XYY=             -0.9808
  XXY=              0.0000  XXZ=             -7.4536  XZZ=              0.0000  YZZ=              0.0000
  YYZ=             -7.4536  XYZ=              0.0000
 Hexadecapole moment (field-independent basis, Debye-Ang**3):
 XXXX=            -17.6393 YYYY=            -17.6393 ZZZZ=           -130.7625 XXXY=              0.0000
 XXXZ=             -0.0065 YYYX=              0.0000 YYYZ=              0.0000 ZZZX=              0.0000
 ZZZY=              0.0000 XXYY=             -5.8798 XXZZ=            -31.4623 YYZZ=            -31.4623
 XXYZ=              0.0000 YYXZ=              0.0065 ZZXY=              0.0000
 N-N= 1.315901302513D+01 E-N=-1.774598925244D+02  KE= 6.040660329022D+01
                          Isotropic Fermi Contact Couplings
        Atom                 a.u.       MegaHertz       Gauss      10(-4) cm-1
     1  C(13)              0.02874      32.30407      11.52689      10.77548
     2  H(1)              -0.00045      -2.02114      -0.72119      -0.67418
     3  H(1)              -0.01320     -59.01072     -21.05649     -19.68386
     4  H(1)              -0.01320     -59.01114     -21.05664     -19.68400
     5  H(1)              -0.01320     -59.01114     -21.05664     -19.68400
     6  H(1)               0.00313      13.98135       4.98889       4.66368
 --------------------------------------------------------
       Center         ----  Spin Dipole Couplings  ----
                      3XX-RR        3YY-RR        3ZZ-RR
 --------------------------------------------------------
     1   Atom       -0.592159     -0.592161      1.184319
     2   Atom       -0.008173     -0.008173      0.016347
     3   Atom        0.074231     -0.075275      0.001045
     4   Atom       -0.037899      0.036854      0.001045
     5   Atom       -0.037899      0.036854      0.001045
     6   Atom       -0.003153     -0.003153      0.006306
 --------------------------------------------------------
                        XY            XZ            YZ
 --------------------------------------------------------
     1   Atom        0.000000     -0.000001      0.000000
     2   Atom        0.000000      0.000000      0.000000
     3   Atom        0.000000     -0.000214      0.000000
     4   Atom        0.064738      0.000107      0.000185
     5   Atom       -0.064738      0.000107     -0.000185
     6   Atom        0.000000      0.000000      0.000000
 --------------------------------------------------------


 ---------------------------------------------------------------------------------
              Anisotropic Spin Dipole Couplings in Principal Axis System
 ---------------------------------------------------------------------------------

       Atom             a.u.   MegaHertz   Gauss  10(-4) cm-1        Axes

              Baa    -0.5922   -79.462   -28.354   -26.506  0.0000  1.0000  0.0000
     1 C(13)  Bbb    -0.5922   -79.462   -28.354   -26.506  1.0000  0.0000  0.0000
              Bcc     1.1843   158.924    56.708    53.011  0.0000  0.0000  1.0000
 
              Baa    -0.0082    -4.361    -1.556    -1.455  1.0000  0.0000  0.0000
     2 H(1)   Bbb    -0.0082    -4.361    -1.556    -1.455  0.0000  1.0000  0.0000
              Bcc     0.0163     8.722     3.112     2.909  0.0000  0.0000  1.0000
 
              Baa    -0.0753   -40.163   -14.331   -13.397  0.0000  1.0000  0.0000
     3 H(1)   Bbb     0.0010     0.557     0.199     0.186  0.0029  0.0000  1.0000
              Bcc     0.0742    39.606    14.132    13.211  1.0000  0.0000 -0.0029
 
              Baa    -0.0753   -40.163   -14.331   -13.397  0.8660 -0.5000  0.0000
     4 H(1)   Bbb     0.0010     0.557     0.199     0.186 -0.0015 -0.0025  1.0000
              Bcc     0.0742    39.606    14.133    13.211  0.5000  0.8660  0.0029
 
              Baa    -0.0753   -40.163   -14.331   -13.397  0.8660  0.5000  0.0000
     5 H(1)   Bbb     0.0010     0.557     0.199     0.186 -0.0015  0.0025  1.0000
              Bcc     0.0742    39.606    14.133    13.211 -0.5000  0.8660 -0.0029
 
              Baa    -0.0032    -1.682    -0.600    -0.561  1.0000  0.0000  0.0000
     6 H(1)   Bbb    -0.0032    -1.682    -0.600    -0.561  0.0000  1.0000  0.0000
              Bcc     0.0063     3.365     1.201     1.122  0.0000  0.0000  1.0000
 

 ---------------------------------------------------------------------------------

 No NMR shielding tensors so no spin-rotation constants.
 Leave Link  601 at Wed Nov  3 01:54:44 2010, MaxMem=  786432000 cpu:       4.2
 (Enter /share/apps/G09A02/g09/l9999.exe)
 1\1\GINC-COMPUTE-0-7\SP\ULC-BLYP\6-311+G(3df,2p)\C1H5(2)\WENXINZY\03-N
 ov-2010\0\\#p lc-blyp/6-311+g(3df,2p) nosymm scf=tight\\33 H2+CH3\\0,2
 \C\H,1,3.0478034\H,1,1.0792277,2,90.1997354\H,1,1.0792277,2,90.1997354
 ,3,120.,0\H,1,1.0792277,2,90.1997354,3,-120.,0\H,2,0.7434834,1,180.,3,
 0.,0\\Version=EM64L-G09RevA.02\HF=-40.8752073\S2=0.753554\S2-1=0.\S2A=
 0.750007\RMSD=8.343e-09\Dipole=-0.0000006,0.,-0.0256052\Quadrupole=0.3
 835056,0.3835091,-0.7670147,0.,0.0000038,0.\PG=C03V [C3(H1H1C1),3SGV(H
 1)]\\@


 IT CANNOT BE MY BEAUTY, FOR I HAVE NONE; AND IT CANNOT BE MY WIT,
 FOR HE HAS NOT ENOUGH TO KNOW THAT I HAVE ANY.
 -- CATHARINE SEDLEY, PUZZLED ABOUT WHY SHE WAS MISTRESS TO JAMES II
 Job cpu time:  0 days  0 hours  4 minutes 29.1 seconds.
 File lengths (MBytes):  RWF=      9 Int=      0 D2E=      0 Chk=      1 Scr=      1
 Normal termination of Gaussian 09 at Wed Nov  3 01:54:44 2010.
