 Entering Gaussian System, Link 0=/share/apps/G09A02/g09/g09
 Input=./.script12553/Job_H2_CH3_19.com
 Output=./.script12553/Job_H2_CH3_19.log
 Initial command:
 /share/apps/G09A02/g09/l1.exe /state/partition1/wenxinzy/scratch/Gau-19502.inp -scrdir=/state/partition1/wenxinzy/scratch/
 Default is to use a total of   8 processors:
                                8 via shared-memory
                                1 via Linda
 Entering Link 1 = /share/apps/G09A02/g09/l1.exe PID=     19503.
  
 Copyright (c) 1988,1990,1992,1993,1995,1998,2003,2009, Gaussian, Inc.
                  All Rights Reserved.
  
 This is part of the Gaussian(R) 09 program.  It is based on
 the Gaussian(R) 03 system (copyright 2003, Gaussian, Inc.),
 the Gaussian(R) 98 system (copyright 1998, Gaussian, Inc.),
 the Gaussian(R) 94 system (copyright 1995, Gaussian, Inc.),
 the Gaussian 92(TM) system (copyright 1992, Gaussian, Inc.),
 the Gaussian 90(TM) system (copyright 1990, Gaussian, Inc.),
 the Gaussian 88(TM) system (copyright 1988, Gaussian, Inc.),
 the Gaussian 86(TM) system (copyright 1986, Carnegie Mellon
 University), and the Gaussian 82(TM) system (copyright 1983,
 Carnegie Mellon University). Gaussian is a federally registered
 trademark of Gaussian, Inc.
  
 This software contains proprietary and confidential information,
 including trade secrets, belonging to Gaussian, Inc.
  
 This software is provided under written license and may be
 used, copied, transmitted, or stored only in accord with that
 written license.
  
 The following legend is applicable only to US Government
 contracts under FAR:
  
                    RESTRICTED RIGHTS LEGEND
  
 Use, reproduction and disclosure by the US Government is
 subject to restrictions as set forth in subparagraphs (a)
 and (c) of the Commercial Computer Software - Restricted
 Rights clause in FAR 52.227-19.
  
 Gaussian, Inc.
 340 Quinnipiac St., Bldg. 40, Wallingford CT 06492
  
  
 ---------------------------------------------------------------
 Warning -- This program may not be used in any manner that
 competes with the business of Gaussian, Inc. or will provide
 assistance to any competitor of Gaussian, Inc.  The licensee
 of this program is prohibited from giving any competitor of
 Gaussian, Inc. access to this program.  By using this program,
 the user acknowledges that Gaussian, Inc. is engaged in the
 business of creating and licensing software in the field of
 computational chemistry and represents and warrants to the
 licensee that it is not a competitor of Gaussian, Inc. and that
 it will not use this program in any manner prohibited above.
 ---------------------------------------------------------------
  

 Cite this work as:
 Gaussian 09, Revision A.02,
 M. J. Frisch, G. W. Trucks, H. B. Schlegel, G. E. Scuseria, 
 M. A. Robb, J. R. Cheeseman, G. Scalmani, V. Barone, B. Mennucci, 
 G. A. Petersson, H. Nakatsuji, M. Caricato, X. Li, H. P. Hratchian, 
 A. F. Izmaylov, J. Bloino, G. Zheng, J. L. Sonnenberg, M. Hada, 
 M. Ehara, K. Toyota, R. Fukuda, J. Hasegawa, M. Ishida, T. Nakajima, 
 Y. Honda, O. Kitao, H. Nakai, T. Vreven, J. A. Montgomery, Jr., 
 J. E. Peralta, F. Ogliaro, M. Bearpark, J. J. Heyd, E. Brothers, 
 K. N. Kudin, V. N. Staroverov, R. Kobayashi, J. Normand, 
 K. Raghavachari, A. Rendell, J. C. Burant, S. S. Iyengar, J. Tomasi, 
 M. Cossi, N. Rega, J. M. Millam, M. Klene, J. E. Knox, J. B. Cross, 
 V. Bakken, C. Adamo, J. Jaramillo, R. Gomperts, R. E. Stratmann, 
 O. Yazyev, A. J. Austin, R. Cammi, C. Pomelli, J. W. Ochterski, 
 R. L. Martin, K. Morokuma, V. G. Zakrzewski, G. A. Voth, 
 P. Salvador, J. J. Dannenberg, S. Dapprich, A. D. Daniels, 
 O. Farkas, J. B. Foresman, J. V. Ortiz, J. Cioslowski, 
 and D. J. Fox, Gaussian, Inc., Wallingford CT, 2009.
 
 ******************************************
 Gaussian 09:  EM64L-G09RevA.02 11-Jun-2009
                 3-Nov-2010 
 ******************************************
 %chk=/state/partition1/wenxinzy/scratch/H2_CH3_19.chk
 %nproc=8
 Will use up to    8 processors via shared memory.
 %mem=6000mb
 -------------------------------------------
 #p lc-blyp/6-311+g(3df,2p) nosymm scf=tight
 -------------------------------------------
 1/38=1/1;
 2/12=2,15=1,17=6,18=5,40=1/2;
 3/5=4,6=6,7=216,11=2,16=1,25=1,30=1,74=1000402/1,2,3;
 4//1;
 5/5=2,32=2,38=5/2;
 6/7=2,8=2,9=2,10=2,28=1/1;
 99/5=1,9=1/99;
 Leave Link    1 at Wed Nov  3 01:46:44 2010, MaxMem=  786432000 cpu:       0.3
 (Enter /share/apps/G09A02/g09/l101.exe)
 ---------
 20 H2+CH3
 ---------
 Symbolic Z-matrix:
 Charge =  0 Multiplicity = 2
 C
 H1                   C    R1
 H2                   C    R2       H1   A1
 H3                   C    R2       H1   A1       H2    120.     0
 H4                   C    R2       H1   A1       H2   -120.     0
 H5                   H1   R3       C     180.     H2    0.       0
       Variables:
  R1                    2.4711                   
  R2                    1.07928                  
  A1                   90.46385                  
  R3                    0.74553                  
 
 NAtoms=      6 NQM=      6 NQMF=      0 NMic=      0 NMicF=      0 NTot=      6.
                    Isotopes and Nuclear Properties:
 (Nuclear quadrupole moments (NQMom) in fm**2, nuclear magnetic moments (NMagM)
  in nuclear magnetons)

  Atom         1           2           3           4           5           6
 IAtWgt=          12           1           1           1           1           1
 AtmWgt=  12.0000000   1.0078250   1.0078250   1.0078250   1.0078250   1.0078250
 NucSpn=           0           1           1           1           1           1
 AtZEff=   0.0000000   0.0000000   0.0000000   0.0000000   0.0000000   0.0000000
 NQMom=    0.0000000   0.0000000   0.0000000   0.0000000   0.0000000   0.0000000
 NMagM=    0.0000000   2.7928460   2.7928460   2.7928460   2.7928460   2.7928460
 Leave Link  101 at Wed Nov  3 01:46:45 2010, MaxMem=  786432000 cpu:       1.1
 (Enter /share/apps/G09A02/g09/l202.exe)
                          Input orientation:                          
 ---------------------------------------------------------------------
 Center     Atomic      Atomic             Coordinates (Angstroms)
 Number     Number       Type             X           Y           Z
 ---------------------------------------------------------------------
      1          6           0        0.000000    0.000000    0.000000
      2          1           0        0.000000    0.000000    2.471101
      3          1           0        1.079248    0.000000   -0.008737
      4          1           0       -0.539624   -0.934656   -0.008737
      5          1           0       -0.539624    0.934656   -0.008737
      6          1           0        0.000000    0.000000    3.216636
 ---------------------------------------------------------------------
                    Distance matrix (angstroms):
                    1          2          3          4          5
     1  C    0.000000
     2  H    2.471101   0.000000
     3  H    1.079283   2.704510   0.000000
     4  H    1.079283   2.704510   1.869312   0.000000
     5  H    1.079283   2.704510   1.869312   1.869312   0.000000
     6  H    3.216636   0.745534   3.401148   3.401148   3.401148
                    6
     6  H    0.000000
 Symmetry turned off by external request.
 Stoichiometry    CH5(2)
 Framework group  C3V[C3(HHC),3SGV(H)]
 Deg. of freedom     4
 Full point group                 C3V     NOp   6
 Rotational constants (GHZ):    143.5054610     30.7553881     30.7553881
 Leave Link  202 at Wed Nov  3 01:46:45 2010, MaxMem=  786432000 cpu:       0.0
 (Enter /share/apps/G09A02/g09/l301.exe)
 Standard basis: 6-311+G(3df,2p) (5D, 7F)
 Ernie: Thresh=  0.10000D-02 Tol=  0.10000D-05 Strict=F.
 Integral buffers will be    131072 words long.
 Raffenetti 2 integral format.
 Two-electron integral symmetry is turned off.
    84 basis functions,   113 primitive gaussians,    90 cartesian basis functions
     6 alpha electrons        5 beta electrons
       nuclear repulsion energy        13.7102447845 Hartrees.
 IExCor=10402 DFT=T Ex=LC-B+HF Corr=LYP ExCW=0 ScaHFX=  1.000000
 ScaDFX=  1.000000  1.000000  1.000000  1.000000 ScalE2=  1.000000  1.000000
 IRadAn=      0 IRanWt=     -1 IRanGd=            0 ICorTp=0
  HFx wShort=  0.000000 wLong=  0.470000 cFull=  0.000000 cShort=  0.000000 cLong=  1.000000
  DFx wShort=  0.000000 wLong=  0.470000 cFull=  0.000000 cShort=  0.000000 cLong=  1.000000
 NAtoms=    6 NActive=    6 NUniq=    6 SFac= 7.50D-01 NAtFMM=   80 NAOKFM=F Big=F
 Leave Link  301 at Wed Nov  3 01:46:45 2010, MaxMem=  786432000 cpu:       0.7
 (Enter /share/apps/G09A02/g09/l302.exe)
 NPDir=0 NMtPBC=     1 NCelOv=     1 NCel=       1 NClECP=     1 NCelD=      1
         NCelK=      1 NCelE2=     1 NClLst=     1 CellRange=     0.0.
 One-electron integrals computed using PRISM.
 NBasis=    84 RedAO= T  NBF=    84
 NBsUse=    84 1.00D-06 NBFU=    84
 Precomputing XC quadrature grid using
 IXCGrd= 2 IRadAn=           0 IRanWt=          -1 IRanGd=           0 AccXCQ= 1.00D-10.
 NRdTot=     383 NPtTot=       48302 NUsed=       51074 NTot=       51106
 NSgBfM=    90    90    90    90    90 NAtAll=     6     6.
 Leave Link  302 at Wed Nov  3 01:46:45 2010, MaxMem=  786432000 cpu:       2.5
 (Enter /share/apps/G09A02/g09/l303.exe)
 DipDrv:  MaxL=1.
 Leave Link  303 at Wed Nov  3 01:46:45 2010, MaxMem=  786432000 cpu:       0.4
 (Enter /share/apps/G09A02/g09/l401.exe)
 Harris functional with IExCor=10402 diagonalized for initial guess.
 ExpMin= 4.38D-02 ExpMax= 4.56D+03 ExpMxC= 6.82D+02 IAcc=2 IRadAn=         0 AccDes= 0.00D+00
 HarFok:  IExCor=10402 AccDes= 0.00D+00 IRadAn=         0 IDoV= 1
 ScaDFX=  1.000000  1.000000  1.000000  1.000000
 FoFCou: FMM=F IPFlag=           0 FMFlag=      100000 FMFlg1=           0
         NFxFlg=           0 DoJE=T BraDBF=F KetDBF=T FulRan=T
         Omega=  0.000000  0.000000  1.000000  0.000000  0.000000 ICntrl=     500 IOpCl=  0
         NMat0=    1 NMatS0=    1 NMatT0=    0 NMatD0=    1 NMtDS0=    0 NMtDT0=    0
         I1Cent=           4 NGrid=           0.
 Symmetry not used in FoFCou.
 Harris En= -38.5349878054946    
 Initial guess <Sx>= 0.0000 <Sy>= 0.0000 <Sz>= 0.5000 <S**2>= 0.7500 S= 0.5000
 Leave Link  401 at Wed Nov  3 01:46:46 2010, MaxMem=  786432000 cpu:       3.7
 (Enter /share/apps/G09A02/g09/l502.exe)
 UHF open shell SCF:
 Requested convergence on RMS density matrix=1.00D-08 within 128 cycles.
 Requested convergence on MAX density matrix=1.00D-06.
 Requested convergence on             energy=1.00D-06.
 No special actions if energy rises.
 Using DIIS extrapolation, IDIIS=  1040.
 Two-electron integral symmetry not used.
        51007 words used for storage of precomputed grid.
 IEnd=       94725 IEndB=       94725 NGot=   786432000 MDV=   786362106
 LenX=   786362106 LenY=   786353565
 Fock matrices will be formed incrementally for  20 cycles.

 Cycle   1  Pass 1  IDiag  1:
 FoFJK:  IHMeth= 1 ICntrl=     0 DoSepK=T KAlg= 1 I1Cent= 0 FoldK=F
 FoFCou: FMM=F IPFlag=           0 FMFlag=      100000 FMFlg1=           0
         NFxFlg=           0 DoJE=T BraDBF=F KetDBF=F FulRan=T
         Omega=  0.000000  0.000000  1.000000  0.000000  0.000000 ICntrl=     500 IOpCl=  0
         NMat0=    1 NMatS0=    1 NMatT0=    0 NMatD0=    1 NMtDS0=    0 NMtDT0=    0
         I1Cent=           0 NGrid=           0.
 Symmetry not used in FoFCou.
 E= -40.8551193912525    
 DIIS: error= 1.97D-02 at cycle   1 NSaved=   1.
 NSaved= 1 IEnMin= 1 EnMin= -40.8551193912525     IErMin= 1 ErrMin= 1.97D-02
 ErrMax= 1.97D-02 EMaxC= 1.00D-01 BMatC= 6.27D-02 BMatP= 6.27D-02
 IDIUse=3 WtCom= 8.03D-01 WtEn= 1.97D-01
 Coeff-Com:  0.100D+01
 Coeff-En:   0.100D+01
 Coeff:      0.100D+01
 Gap=     0.388 Goal=   None    Shift=    0.000
 Gap=     0.618 Goal=   None    Shift=    0.000
 GapD=    0.388 DampG=1.000 DampE=0.500 DampFc=0.5000 IDamp=-1.
 Damping current iteration by 5.00D-01
 RMSDP=1.57D-03 MaxDP=6.55D-02              OVMax= 5.35D-02

 Cycle   2  Pass 1  IDiag  1:
 RMSU=  5.88D-04    CP:  9.80D-01
 FoFJK:  IHMeth= 1 ICntrl=     0 DoSepK=T KAlg= 1 I1Cent= 0 FoldK=F
 E= -40.8641480142544     Delta-E=       -0.009028623002 Rises=F Damp=T
 DIIS: error= 8.83D-03 at cycle   2 NSaved=   2.
 NSaved= 2 IEnMin= 2 EnMin= -40.8641480142544     IErMin= 2 ErrMin= 8.83D-03
 ErrMax= 8.83D-03 EMaxC= 1.00D-01 BMatC= 1.00D-02 BMatP= 6.27D-02
 IDIUse=3 WtCom= 9.12D-01 WtEn= 8.83D-02
 Coeff-Com: -0.423D+00 0.142D+01
 Coeff-En:   0.000D+00 0.100D+01
 Coeff:     -0.385D+00 0.139D+01
 Gap=     0.429 Goal=   None    Shift=    0.000
 Gap=     0.567 Goal=   None    Shift=    0.000
 RMSDP=9.24D-04 MaxDP=2.32D-02 DE=-9.03D-03 OVMax= 4.33D-02

 Cycle   3  Pass 1  IDiag  1:
 RMSU=  5.26D-04    CP:  9.70D-01  1.96D+00
 FoFJK:  IHMeth= 1 ICntrl=     0 DoSepK=T KAlg= 1 I1Cent= 0 FoldK=F
 E= -40.8742287269395     Delta-E=       -0.010080712685 Rises=F Damp=F
 DIIS: error= 2.73D-03 at cycle   3 NSaved=   3.
 NSaved= 3 IEnMin= 3 EnMin= -40.8742287269395     IErMin= 3 ErrMin= 2.73D-03
 ErrMax= 2.73D-03 EMaxC= 1.00D-01 BMatC= 7.30D-04 BMatP= 1.00D-02
 IDIUse=3 WtCom= 9.73D-01 WtEn= 2.73D-02
 Coeff-Com: -0.608D-01-0.767D-01 0.114D+01
 Coeff-En:   0.000D+00 0.000D+00 0.100D+01
 Coeff:     -0.591D-01-0.746D-01 0.113D+01
 Gap=     0.432 Goal=   None    Shift=    0.000
 Gap=     0.566 Goal=   None    Shift=    0.000
 RMSDP=3.02D-04 MaxDP=9.54D-03 DE=-1.01D-02 OVMax= 2.16D-02

 Cycle   4  Pass 1  IDiag  1:
 RMSU=  7.68D-05    CP:  9.66D-01  2.24D+00  1.32D+00
 FoFJK:  IHMeth= 1 ICntrl=     0 DoSepK=T KAlg= 1 I1Cent= 0 FoldK=F
 E= -40.8747716773094     Delta-E=       -0.000542950370 Rises=F Damp=F
 DIIS: error= 1.14D-03 at cycle   4 NSaved=   4.
 NSaved= 4 IEnMin= 4 EnMin= -40.8747716773094     IErMin= 4 ErrMin= 1.14D-03
 ErrMax= 1.14D-03 EMaxC= 1.00D-01 BMatC= 5.68D-05 BMatP= 7.30D-04
 IDIUse=3 WtCom= 9.89D-01 WtEn= 1.14D-02
 Coeff-Com:  0.300D-01-0.479D-01-0.343D+00 0.136D+01
 Coeff-En:   0.000D+00 0.000D+00 0.000D+00 0.100D+01
 Coeff:      0.297D-01-0.474D-01-0.339D+00 0.136D+01
 Gap=     0.434 Goal=   None    Shift=    0.000
 Gap=     0.566 Goal=   None    Shift=    0.000
 RMSDP=1.15D-04 MaxDP=3.87D-03 DE=-5.43D-04 OVMax= 9.41D-03

 Cycle   5  Pass 1  IDiag  1:
 RMSU=  1.54D-05    CP:  9.65D-01  2.32D+00  1.44D+00  1.65D+00
 FoFJK:  IHMeth= 1 ICntrl=     0 DoSepK=T KAlg= 1 I1Cent= 0 FoldK=F
 E= -40.8748339554711     Delta-E=       -0.000062278162 Rises=F Damp=F
 DIIS: error= 2.22D-04 at cycle   5 NSaved=   5.
 NSaved= 5 IEnMin= 5 EnMin= -40.8748339554711     IErMin= 5 ErrMin= 2.22D-04
 ErrMax= 2.22D-04 EMaxC= 1.00D-01 BMatC= 3.80D-06 BMatP= 5.68D-05
 IDIUse=3 WtCom= 9.98D-01 WtEn= 2.22D-03
 Coeff-Com: -0.528D-02 0.202D-01 0.599D-01-0.509D+00 0.143D+01
 Coeff-En:   0.000D+00 0.000D+00 0.000D+00 0.000D+00 0.100D+01
 Coeff:     -0.527D-02 0.202D-01 0.598D-01-0.508D+00 0.143D+01
 Gap=     0.434 Goal=   None    Shift=    0.000
 Gap=     0.566 Goal=   None    Shift=    0.000
 RMSDP=2.44D-05 MaxDP=7.03D-04 DE=-6.23D-05 OVMax= 1.60D-03

 Cycle   6  Pass 1  IDiag  1:
 RMSU=  4.57D-06    CP:  9.65D-01  2.32D+00  1.45D+00  1.83D+00  1.68D+00
 FoFJK:  IHMeth= 1 ICntrl=     0 DoSepK=T KAlg= 1 I1Cent= 0 FoldK=F
 E= -40.8748374783788     Delta-E=       -0.000003522908 Rises=F Damp=F
 DIIS: error= 4.53D-05 at cycle   6 NSaved=   6.
 NSaved= 6 IEnMin= 6 EnMin= -40.8748374783788     IErMin= 6 ErrMin= 4.53D-05
 ErrMax= 4.53D-05 EMaxC= 1.00D-01 BMatC= 2.23D-07 BMatP= 3.80D-06
 IDIUse=1 WtCom= 1.00D+00 WtEn= 0.00D+00
 Coeff-Com: -0.101D-02-0.852D-03 0.383D-02 0.438D-01-0.338D+00 0.129D+01
 Coeff:     -0.101D-02-0.852D-03 0.383D-02 0.438D-01-0.338D+00 0.129D+01
 Gap=     0.434 Goal=   None    Shift=    0.000
 Gap=     0.566 Goal=   None    Shift=    0.000
 RMSDP=4.90D-06 MaxDP=9.79D-05 DE=-3.52D-06 OVMax= 2.29D-04

 Cycle   7  Pass 1  IDiag  1:
 RMSU=  1.58D-06    CP:  9.65D-01  2.32D+00  1.45D+00  1.84D+00  1.81D+00
                    CP:  1.64D+00
 FoFJK:  IHMeth= 1 ICntrl=     0 DoSepK=T KAlg= 1 I1Cent= 0 FoldK=F
 E= -40.8748376767570     Delta-E=       -0.000000198378 Rises=F Damp=F
 DIIS: error= 1.48D-05 at cycle   7 NSaved=   7.
 NSaved= 7 IEnMin= 7 EnMin= -40.8748376767570     IErMin= 7 ErrMin= 1.48D-05
 ErrMax= 1.48D-05 EMaxC= 1.00D-01 BMatC= 1.98D-08 BMatP= 2.23D-07
 IDIUse=1 WtCom= 1.00D+00 WtEn= 0.00D+00
 Coeff-Com:  0.757D-03-0.203D-02-0.599D-02 0.426D-01-0.849D-01-0.236D+00
 Coeff-Com:  0.129D+01
 Coeff:      0.757D-03-0.203D-02-0.599D-02 0.426D-01-0.849D-01-0.236D+00
 Coeff:      0.129D+01
 Gap=     0.434 Goal=   None    Shift=    0.000
 Gap=     0.566 Goal=   None    Shift=    0.000
 RMSDP=1.86D-06 MaxDP=3.76D-05 DE=-1.98D-07 OVMax= 8.78D-05

 Cycle   8  Pass 1  IDiag  1:
 RMSU=  3.11D-07    CP:  9.65D-01  2.32D+00  1.45D+00  1.84D+00  1.84D+00
                    CP:  1.91D+00  1.52D+00
 FoFJK:  IHMeth= 1 ICntrl=     0 DoSepK=T KAlg= 1 I1Cent= 0 FoldK=F
 E= -40.8748376955417     Delta-E=       -0.000000018785 Rises=F Damp=F
 DIIS: error= 2.26D-06 at cycle   8 NSaved=   8.
 NSaved= 8 IEnMin= 8 EnMin= -40.8748376955417     IErMin= 8 ErrMin= 2.26D-06
 ErrMax= 2.26D-06 EMaxC= 1.00D-01 BMatC= 7.57D-10 BMatP= 1.98D-08
 IDIUse=1 WtCom= 1.00D+00 WtEn= 0.00D+00
 Coeff-Com:  0.251D-05 0.268D-03 0.878D-03-0.977D-02 0.345D-01-0.374D-01
 Coeff-Com: -0.210D+00 0.122D+01
 Coeff:      0.251D-05 0.268D-03 0.878D-03-0.977D-02 0.345D-01-0.374D-01
 Coeff:     -0.210D+00 0.122D+01
 Gap=     0.434 Goal=   None    Shift=    0.000
 Gap=     0.566 Goal=   None    Shift=    0.000
 RMSDP=3.51D-07 MaxDP=9.68D-06 DE=-1.88D-08 OVMax= 1.54D-05

 Cycle   9  Pass 1  IDiag  1:
 RMSU=  5.99D-08    CP:  9.65D-01  2.32D+00  1.45D+00  1.84D+00  1.84D+00
                    CP:  1.95D+00  1.64D+00  1.45D+00
 FoFJK:  IHMeth= 1 ICntrl=     0 DoSepK=T KAlg= 1 I1Cent= 0 FoldK=F
 E= -40.8748376961197     Delta-E=       -0.000000000578 Rises=F Damp=F
 DIIS: error= 7.82D-07 at cycle   9 NSaved=   9.
 NSaved= 9 IEnMin= 9 EnMin= -40.8748376961197     IErMin= 9 ErrMin= 7.82D-07
 ErrMax= 7.82D-07 EMaxC= 1.00D-01 BMatC= 3.99D-11 BMatP= 7.57D-10
 IDIUse=1 WtCom= 1.00D+00 WtEn= 0.00D+00
 Coeff-Com: -0.373D-04-0.128D-04-0.141D-03 0.213D-02-0.978D-02 0.228D-01
 Coeff-Com:  0.290D-01-0.410D+00 0.137D+01
 Coeff:     -0.373D-04-0.128D-04-0.141D-03 0.213D-02-0.978D-02 0.228D-01
 Coeff:      0.290D-01-0.410D+00 0.137D+01
 Gap=     0.434 Goal=   None    Shift=    0.000
 Gap=     0.566 Goal=   None    Shift=    0.000
 RMSDP=7.62D-08 MaxDP=1.86D-06 DE=-5.78D-10 OVMax= 5.40D-06

 Cycle  10  Pass 1  IDiag  1:
 RMSU=  2.59D-08    CP:  9.65D-01  2.32D+00  1.45D+00  1.84D+00  1.84D+00
                    CP:  1.94D+00  1.64D+00  1.54D+00  1.60D+00
 FoFJK:  IHMeth= 1 ICntrl=     0 DoSepK=T KAlg= 1 I1Cent= 0 FoldK=F
 E= -40.8748376961637     Delta-E=       -0.000000000044 Rises=F Damp=F
 DIIS: error= 3.69D-07 at cycle  10 NSaved=  10.
 NSaved=10 IEnMin=10 EnMin= -40.8748376961637     IErMin=10 ErrMin= 3.69D-07
 ErrMax= 3.69D-07 EMaxC= 1.00D-01 BMatC= 6.15D-12 BMatP= 3.99D-11
 IDIUse=1 WtCom= 1.00D+00 WtEn= 0.00D+00
 Coeff-Com:  0.281D-04-0.209D-04 0.155D-04-0.472D-03 0.326D-02-0.120D-01
 Coeff-Com:  0.363D-03 0.155D+00-0.879D+00 0.173D+01
 Coeff:      0.281D-04-0.209D-04 0.155D-04-0.472D-03 0.326D-02-0.120D-01
 Coeff:      0.363D-03 0.155D+00-0.879D+00 0.173D+01
 Gap=     0.434 Goal=   None    Shift=    0.000
 Gap=     0.566 Goal=   None    Shift=    0.000
 RMSDP=3.87D-08 MaxDP=1.03D-06 DE=-4.40D-11 OVMax= 2.59D-06

 Cycle  11  Pass 1  IDiag  1:
 RMSU=  8.65D-09    CP:  9.65D-01  2.32D+00  1.45D+00  1.84D+00  1.84D+00
                    CP:  1.94D+00  1.64D+00  1.54D+00  1.88D+00  1.82D+00
 FoFJK:  IHMeth= 1 ICntrl=     0 DoSepK=T KAlg= 1 I1Cent= 0 FoldK=F
 E= -40.8748376961733     Delta-E=       -0.000000000010 Rises=F Damp=F
 DIIS: error= 9.50D-08 at cycle  11 NSaved=  11.
 NSaved=11 IEnMin=11 EnMin= -40.8748376961733     IErMin=11 ErrMin= 9.50D-08
 ErrMax= 9.50D-08 EMaxC= 1.00D-01 BMatC= 4.36D-13 BMatP= 6.15D-12
 IDIUse=1 WtCom= 1.00D+00 WtEn= 0.00D+00
 Coeff-Com: -0.672D-05 0.109D-04 0.920D-05-0.976D-04 0.762D-04 0.145D-02
 Coeff-Com: -0.472D-02-0.442D-03 0.141D+00-0.572D+00 0.143D+01
 Coeff:     -0.672D-05 0.109D-04 0.920D-05-0.976D-04 0.762D-04 0.145D-02
 Coeff:     -0.472D-02-0.442D-03 0.141D+00-0.572D+00 0.143D+01
 Gap=     0.434 Goal=   None    Shift=    0.000
 Gap=     0.566 Goal=   None    Shift=    0.000
 RMSDP=9.68D-09 MaxDP=3.25D-07 DE=-9.61D-12 OVMax= 6.40D-07

 SCF Done:  E(ULC-B+HF-LYP) =  -40.8748376962     A.U. after   11 cycles
             Convg  =    0.9681D-08             -V/T =  2.0047
 <Sx>= 0.0000 <Sy>= 0.0000 <Sz>= 0.5000 <S**2>= 0.7538 S= 0.5019
 <L.S>= 0.000000000000E+00
 KE= 4.068252019534D+01 PE=-1.214760750959D+02 EE= 2.620847241993D+01
 Annihilation of the first spin contaminant:
 S**2 before annihilation     0.7538,   after     0.7500
 Leave Link  502 at Wed Nov  3 01:47:18 2010, MaxMem=  786432000 cpu:     257.4
 (Enter /share/apps/G09A02/g09/l601.exe)
 Copying SCF densities to generalized density rwf, IOpCl= 1 IROHF=0.

 **********************************************************************

            Population analysis using the SCF density.

 **********************************************************************

 Alpha  occ. eigenvalues --  -10.14732  -0.85542  -0.56490  -0.55950  -0.55950
 Alpha  occ. eigenvalues --   -0.36446
 Alpha virt. eigenvalues --    0.06950   0.09131   0.09131   0.12265   0.17470
 Alpha virt. eigenvalues --    0.23328   0.23328   0.24708   0.37890   0.37890
 Alpha virt. eigenvalues --    0.37987   0.40292   0.40292   0.49708   0.59726
 Alpha virt. eigenvalues --    0.62998   0.62998   0.66772   0.66772   0.67857
 Alpha virt. eigenvalues --    0.75024   0.79666   0.83152   0.83152   0.94701
 Alpha virt. eigenvalues --    1.02263   1.02263   1.08773   1.16159   1.16159
 Alpha virt. eigenvalues --    1.23465   1.23465   1.33549   1.48957   1.48957
 Alpha virt. eigenvalues --    1.50817   1.68164   1.78731   1.78731   2.13342
 Alpha virt. eigenvalues --    2.15369   2.15369   2.49045   2.55326   2.65174
 Alpha virt. eigenvalues --    2.79247   2.79247   2.87037   3.05557   3.13240
 Alpha virt. eigenvalues --    3.13240   3.16579   3.21000   3.21000   3.59042
 Alpha virt. eigenvalues --    3.59042   3.72465   3.72465   3.95345   4.04356
 Alpha virt. eigenvalues --    4.27751   4.27751   4.35810   4.35810   4.40496
 Alpha virt. eigenvalues --    4.40496   4.49185   4.96470   5.35285   5.73578
 Alpha virt. eigenvalues --    5.73578   5.81305   7.15279   7.15279   7.31511
 Alpha virt. eigenvalues --    7.73266   7.73266  24.22833
  Beta  occ. eigenvalues --  -10.13307  -0.80952  -0.55852  -0.54889  -0.54889
  Beta virt. eigenvalues --    0.01672   0.07061   0.09001   0.09001   0.13196
  Beta virt. eigenvalues --    0.19442   0.23575   0.23575   0.25765   0.38779
  Beta virt. eigenvalues --    0.39035   0.39035   0.40287   0.40288   0.51302
  Beta virt. eigenvalues --    0.60651   0.63343   0.63343   0.67467   0.67467
  Beta virt. eigenvalues --    0.69713   0.76676   0.80728   0.83221   0.83222
  Beta virt. eigenvalues --    0.94664   1.02836   1.02836   1.09431   1.16211
  Beta virt. eigenvalues --    1.16211   1.23518   1.23518   1.34860   1.49490
  Beta virt. eigenvalues --    1.49490   1.52851   1.68201   1.83543   1.83543
  Beta virt. eigenvalues --    2.16379   2.16379   2.16712   2.49655   2.55312
  Beta virt. eigenvalues --    2.65790   2.80616   2.80616   2.92354   3.05957
  Beta virt. eigenvalues --    3.16195   3.16195   3.21115   3.24282   3.24282
  Beta virt. eigenvalues --    3.59337   3.59337   3.73358   3.73358   3.95678
  Beta virt. eigenvalues --    4.04705   4.27389   4.27389   4.36579   4.36579
  Beta virt. eigenvalues --    4.40659   4.40659   4.49857   4.96636   5.36225
  Beta virt. eigenvalues --    5.74174   5.74174   5.81525   7.21606   7.21607
  Beta virt. eigenvalues --    7.39547   7.74889   7.74889  24.24705
          Condensed to atoms (all electrons):
              1          2          3          4          5          6
     1  C    5.405147  -0.010278   0.401799   0.401797   0.401797  -0.015581
     2  H   -0.010278   0.579204  -0.000675  -0.000675  -0.000675   0.426161
     3  H    0.401799  -0.000675   0.441690  -0.020048  -0.020048  -0.000216
     4  H    0.401797  -0.000675  -0.020048   0.441691  -0.020046  -0.000216
     5  H    0.401797  -0.000675  -0.020048  -0.020046   0.441691  -0.000216
     6  H   -0.015581   0.426161  -0.000216  -0.000216  -0.000216   0.604824
 Mulliken atomic charges:
              1
     1  C   -0.584680
     2  H    0.006938
     3  H    0.197499
     4  H    0.197498
     5  H    0.197498
     6  H   -0.014754
 Sum of Mulliken atomic charges =   0.00000
 Mulliken charges with hydrogens summed into heavy atoms:
              1
     1  C    0.000000
 Sum of Mulliken charges with hydrogens summed into heavy atoms =   0.00000
          Atomic-Atomic Spin Densities.
              1          2          3          4          5          6
     1  C    1.067968  -0.006295   0.004556   0.004557   0.004557  -0.013928
     2  H   -0.006295  -0.019544  -0.000004  -0.000004  -0.000004   0.005281
     3  H    0.004556  -0.000004  -0.034077   0.002847   0.002847  -0.000089
     4  H    0.004557  -0.000004   0.002847  -0.034078   0.002846  -0.000090
     5  H    0.004557  -0.000004   0.002847   0.002846  -0.034078  -0.000090
     6  H   -0.013928   0.005281  -0.000089  -0.000090  -0.000090   0.039837
 Mulliken atomic spin densities:
              1
     1  C    1.061414
     2  H   -0.020570
     3  H   -0.023921
     4  H   -0.023922
     5  H   -0.023922
     6  H    0.030922
 Sum of Mulliken atomic spin densities =   1.00000
 Electronic spatial extent (au):  <R**2>=             93.5883
 Charge=              0.0000 electrons
 Dipole moment (field-independent basis, Debye):
    X=              0.0000    Y=              0.0000    Z=             -0.1076  Tot=              0.1076
 Quadrupole moment (field-independent basis, Debye-Ang):
   XX=             -9.4386   YY=             -9.4386   ZZ=            -11.1896
   XY=              0.0000   XZ=              0.0000   YZ=              0.0000
 Traceless Quadrupole moment (field-independent basis, Debye-Ang):
   XX=              0.5837   YY=              0.5837   ZZ=             -1.1673
   XY=              0.0000   XZ=              0.0000   YZ=              0.0000
 Octapole moment (field-independent basis, Debye-Ang**2):
  XXX=              0.9860  YYY=              0.0000  ZZZ=            -15.1852  XYY=             -0.9860
  XXY=              0.0000  XXZ=             -6.1770  XZZ=              0.0000  YZZ=              0.0000
  YYZ=             -6.1770  XYZ=              0.0000
 Hexadecapole moment (field-independent basis, Debye-Ang**3):
 XXXX=            -17.5349 YYYY=            -17.5349 ZZZZ=            -99.1150 XXXY=              0.0000
 XXXZ=             -0.0143 YYYX=              0.0000 YYYZ=              0.0000 ZZZX=              0.0000
 ZZZY=              0.0000 XXYY=             -5.8450 XXZZ=            -23.6200 YYZZ=            -23.6200
 XXYZ=              0.0000 YYXZ=              0.0143 ZZXY=              0.0000
 N-N= 1.371024478446D+01 E-N=-1.790786496671D+02  KE= 6.041119843082D+01
                          Isotropic Fermi Contact Couplings
        Atom                 a.u.       MegaHertz       Gauss      10(-4) cm-1
     1  C(13)              0.02936      33.00933      11.77855      11.01073
     2  H(1)              -0.00264     -11.82076      -4.21794      -3.94298
     3  H(1)              -0.01320     -59.00355     -21.05393     -19.68147
     4  H(1)              -0.01320     -59.00398     -21.05409     -19.68161
     5  H(1)              -0.01320     -59.00398     -21.05409     -19.68161
     6  H(1)               0.01152      51.48682      18.37178      17.17416
 --------------------------------------------------------
       Center         ----  Spin Dipole Couplings  ----
                      3XX-RR        3YY-RR        3ZZ-RR
 --------------------------------------------------------
     1   Atom       -0.594236     -0.594237      1.188473
     2   Atom       -0.018481     -0.018481      0.036962
     3   Atom        0.074641     -0.075297      0.000656
     4   Atom       -0.037813      0.037157      0.000656
     5   Atom       -0.037813      0.037157      0.000656
     6   Atom       -0.004519     -0.004519      0.009038
 --------------------------------------------------------
                        XY            XZ            YZ
 --------------------------------------------------------
     1   Atom        0.000000      0.000000      0.000000
     2   Atom        0.000000      0.000000      0.000000
     3   Atom        0.000000     -0.000974      0.000000
     4   Atom        0.064925      0.000487      0.000844
     5   Atom       -0.064925      0.000487     -0.000844
     6   Atom        0.000000      0.000000      0.000000
 --------------------------------------------------------


 ---------------------------------------------------------------------------------
              Anisotropic Spin Dipole Couplings in Principal Axis System
 ---------------------------------------------------------------------------------

       Atom             a.u.   MegaHertz   Gauss  10(-4) cm-1        Axes

              Baa    -0.5942   -79.741   -28.454   -26.599  0.0000  1.0000  0.0000
     1 C(13)  Bbb    -0.5942   -79.741   -28.453   -26.599  1.0000  0.0000  0.0000
              Bcc     1.1885   159.482    56.907    53.197  0.0000  0.0000  1.0000
 
              Baa    -0.0185    -9.861    -3.519    -3.289  1.0000  0.0000  0.0000
     2 H(1)   Bbb    -0.0185    -9.861    -3.519    -3.289  0.0000  1.0000  0.0000
              Bcc     0.0370    19.721     7.037     6.578  0.0000  0.0000  1.0000
 
              Baa    -0.0753   -40.175   -14.335   -13.401  0.0000  1.0000  0.0000
     3 H(1)   Bbb     0.0006     0.343     0.122     0.114  0.0132  0.0000  0.9999
              Bcc     0.0747    39.832    14.213    13.286  0.9999  0.0000 -0.0132
 
              Baa    -0.0753   -40.175   -14.335   -13.401  0.8660 -0.5000  0.0000
     4 H(1)   Bbb     0.0006     0.343     0.122     0.114 -0.0066 -0.0114  0.9999
              Bcc     0.0747    39.832    14.213    13.286  0.5000  0.8660  0.0132
 
              Baa    -0.0753   -40.175   -14.335   -13.401  0.8660  0.5000  0.0000
     5 H(1)   Bbb     0.0006     0.343     0.122     0.114 -0.0066  0.0114  0.9999
              Bcc     0.0747    39.832    14.213    13.286 -0.5000  0.8660 -0.0132
 
              Baa    -0.0045    -2.411    -0.860    -0.804  1.0000  0.0000  0.0000
     6 H(1)   Bbb    -0.0045    -2.411    -0.860    -0.804  0.0000  1.0000  0.0000
              Bcc     0.0090     4.822     1.721     1.609  0.0000  0.0000  1.0000
 

 ---------------------------------------------------------------------------------

 No NMR shielding tensors so no spin-rotation constants.
 Leave Link  601 at Wed Nov  3 01:47:19 2010, MaxMem=  786432000 cpu:       4.2
 (Enter /share/apps/G09A02/g09/l9999.exe)
 1\1\GINC-COMPUTE-0-7\SP\ULC-BLYP\6-311+G(3df,2p)\C1H5(2)\WENXINZY\03-N
 ov-2010\0\\#p lc-blyp/6-311+g(3df,2p) nosymm scf=tight\\20 H2+CH3\\0,2
 \C\H,1,2.4711014\H,1,1.0792832,2,90.463848\H,1,1.0792832,2,90.463848,3
 ,120.,0\H,1,1.0792832,2,90.463848,3,-120.,0\H,2,0.7455341,1,180.,3,0.,
 0\\Version=EM64L-G09RevA.02\HF=-40.8748377\S2=0.753782\S2-1=0.\S2A=0.7
 50008\RMSD=9.681e-09\Dipole=0.0000006,0.,-0.0423155\Quadrupole=0.43394
 38,0.4339416,-0.8678854,0.,0.0000006,0.\PG=C03V [C3(H1H1C1),3SGV(H1)]\
 \@


 EVERYTHING'S GOT A MORAL, IF ONLY YOU CAN FIND IT.

                                    -- LEWIS CARROL, ALICE IN WONDERLAND
 Job cpu time:  0 days  0 hours  4 minutes 31.8 seconds.
 File lengths (MBytes):  RWF=      9 Int=      0 D2E=      0 Chk=      1 Scr=      1
 Normal termination of Gaussian 09 at Wed Nov  3 01:47:19 2010.
