 Entering Gaussian System, Link 0=/share/apps/G09A02/g09/g09
 Input=./.script12553/Job_H_CH4_47.com
 Output=./.script12553/Job_H_CH4_47.log
 Initial command:
 /share/apps/G09A02/g09/l1.exe /state/partition1/wenxinzy/scratch/Gau-17343.inp -scrdir=/state/partition1/wenxinzy/scratch/
 Default is to use a total of   8 processors:
                                8 via shared-memory
                                1 via Linda
 Entering Link 1 = /share/apps/G09A02/g09/l1.exe PID=     17344.
  
 Copyright (c) 1988,1990,1992,1993,1995,1998,2003,2009, Gaussian, Inc.
                  All Rights Reserved.
  
 This is part of the Gaussian(R) 09 program.  It is based on
 the Gaussian(R) 03 system (copyright 2003, Gaussian, Inc.),
 the Gaussian(R) 98 system (copyright 1998, Gaussian, Inc.),
 the Gaussian(R) 94 system (copyright 1995, Gaussian, Inc.),
 the Gaussian 92(TM) system (copyright 1992, Gaussian, Inc.),
 the Gaussian 90(TM) system (copyright 1990, Gaussian, Inc.),
 the Gaussian 88(TM) system (copyright 1988, Gaussian, Inc.),
 the Gaussian 86(TM) system (copyright 1986, Carnegie Mellon
 University), and the Gaussian 82(TM) system (copyright 1983,
 Carnegie Mellon University). Gaussian is a federally registered
 trademark of Gaussian, Inc.
  
 This software contains proprietary and confidential information,
 including trade secrets, belonging to Gaussian, Inc.
  
 This software is provided under written license and may be
 used, copied, transmitted, or stored only in accord with that
 written license.
  
 The following legend is applicable only to US Government
 contracts under FAR:
  
                    RESTRICTED RIGHTS LEGEND
  
 Use, reproduction and disclosure by the US Government is
 subject to restrictions as set forth in subparagraphs (a)
 and (c) of the Commercial Computer Software - Restricted
 Rights clause in FAR 52.227-19.
  
 Gaussian, Inc.
 340 Quinnipiac St., Bldg. 40, Wallingford CT 06492
  
  
 ---------------------------------------------------------------
 Warning -- This program may not be used in any manner that
 competes with the business of Gaussian, Inc. or will provide
 assistance to any competitor of Gaussian, Inc.  The licensee
 of this program is prohibited from giving any competitor of
 Gaussian, Inc. access to this program.  By using this program,
 the user acknowledges that Gaussian, Inc. is engaged in the
 business of creating and licensing software in the field of
 computational chemistry and represents and warrants to the
 licensee that it is not a competitor of Gaussian, Inc. and that
 it will not use this program in any manner prohibited above.
 ---------------------------------------------------------------
  

 Cite this work as:
 Gaussian 09, Revision A.02,
 M. J. Frisch, G. W. Trucks, H. B. Schlegel, G. E. Scuseria, 
 M. A. Robb, J. R. Cheeseman, G. Scalmani, V. Barone, B. Mennucci, 
 G. A. Petersson, H. Nakatsuji, M. Caricato, X. Li, H. P. Hratchian, 
 A. F. Izmaylov, J. Bloino, G. Zheng, J. L. Sonnenberg, M. Hada, 
 M. Ehara, K. Toyota, R. Fukuda, J. Hasegawa, M. Ishida, T. Nakajima, 
 Y. Honda, O. Kitao, H. Nakai, T. Vreven, J. A. Montgomery, Jr., 
 J. E. Peralta, F. Ogliaro, M. Bearpark, J. J. Heyd, E. Brothers, 
 K. N. Kudin, V. N. Staroverov, R. Kobayashi, J. Normand, 
 K. Raghavachari, A. Rendell, J. C. Burant, S. S. Iyengar, J. Tomasi, 
 M. Cossi, N. Rega, J. M. Millam, M. Klene, J. E. Knox, J. B. Cross, 
 V. Bakken, C. Adamo, J. Jaramillo, R. Gomperts, R. E. Stratmann, 
 O. Yazyev, A. J. Austin, R. Cammi, C. Pomelli, J. W. Ochterski, 
 R. L. Martin, K. Morokuma, V. G. Zakrzewski, G. A. Voth, 
 P. Salvador, J. J. Dannenberg, S. Dapprich, A. D. Daniels, 
 O. Farkas, J. B. Foresman, J. V. Ortiz, J. Cioslowski, 
 and D. J. Fox, Gaussian, Inc., Wallingford CT, 2009.
 
 ******************************************
 Gaussian 09:  EM64L-G09RevA.02 11-Jun-2009
                 3-Nov-2010 
 ******************************************
 %chk=/state/partition1/wenxinzy/scratch/H_CH4_47.chk
 %nproc=8
 Will use up to    8 processors via shared memory.
 %mem=6000mb
 -------------------------------------------
 #p lc-blyp/6-311+g(3df,2p) nosymm scf=tight
 -------------------------------------------
 1/38=1/1;
 2/12=2,15=1,17=6,18=5,40=1/2;
 3/5=4,6=6,7=216,11=2,16=1,25=1,30=1,74=1000402/1,2,3;
 4//1;
 5/5=2,32=2,38=5/2;
 6/7=2,8=2,9=2,10=2,28=1/1;
 99/5=1,9=1/99;
 Leave Link    1 at Wed Nov  3 01:33:47 2010, MaxMem=  786432000 cpu:       0.4
 (Enter /share/apps/G09A02/g09/l101.exe)
 --------
 48 H_CH4
 --------
 Symbolic Z-matrix:
 Charge =  0 Multiplicity = 2
 C
 H1                   C    R1
 H2                   C    R2       H1   A1
 H3                   C    R2       H1   A1       H2    120.     0
 H4                   C    R2       H1   A1       H2   -120.     0
 H5                   H1   R3       C     180.     H2    0.       0
       Variables:
  R1                    1.08927                  
  R2                    1.08929                  
  A1                  109.46839                  
  R3                    2.95431                  
 
 NAtoms=      6 NQM=      6 NQMF=      0 NMic=      0 NMicF=      0 NTot=      6.
                    Isotopes and Nuclear Properties:
 (Nuclear quadrupole moments (NQMom) in fm**2, nuclear magnetic moments (NMagM)
  in nuclear magnetons)

  Atom         1           2           3           4           5           6
 IAtWgt=          12           1           1           1           1           1
 AtmWgt=  12.0000000   1.0078250   1.0078250   1.0078250   1.0078250   1.0078250
 NucSpn=           0           1           1           1           1           1
 AtZEff=   0.0000000   0.0000000   0.0000000   0.0000000   0.0000000   0.0000000
 NQMom=    0.0000000   0.0000000   0.0000000   0.0000000   0.0000000   0.0000000
 NMagM=    0.0000000   2.7928460   2.7928460   2.7928460   2.7928460   2.7928460
 Leave Link  101 at Wed Nov  3 01:33:48 2010, MaxMem=  786432000 cpu:       1.0
 (Enter /share/apps/G09A02/g09/l202.exe)
                          Input orientation:                          
 ---------------------------------------------------------------------
 Center     Atomic      Atomic             Coordinates (Angstroms)
 Number     Number       Type             X           Y           Z
 ---------------------------------------------------------------------
      1          6           0        0.000000    0.000000    0.000000
      2          1           0        0.000000    0.000000    1.089266
      3          1           0        1.027013    0.000000   -0.363047
      4          1           0       -0.513507   -0.889420   -0.363047
      5          1           0       -0.513507    0.889420   -0.363047
      6          1           0        0.000000    0.000000    4.043577
 ---------------------------------------------------------------------
                    Distance matrix (angstroms):
                    1          2          3          4          5
     1  C    0.000000
     2  H    1.089266   0.000000
     3  H    1.089293   1.778755   0.000000
     4  H    1.089293   1.778755   1.778839   0.000000
     5  H    1.089293   1.778755   1.778839   1.778839   0.000000
     6  H    4.043577   2.954311   4.524720   4.524720   4.524720
                    6
     6  H    0.000000
 Symmetry turned off by external request.
 Stoichiometry    CH5(2)
 Framework group  C3V[C3(HHC),3SGV(H)]
 Deg. of freedom     4
 Full point group                 C3V     NOp   6
 Rotational constants (GHZ):    158.4742241     27.0364001     27.0364001
 Leave Link  202 at Wed Nov  3 01:33:48 2010, MaxMem=  786432000 cpu:       0.0
 (Enter /share/apps/G09A02/g09/l301.exe)
 Standard basis: 6-311+G(3df,2p) (5D, 7F)
 Ernie: Thresh=  0.10000D-02 Tol=  0.10000D-05 Strict=F.
 Integral buffers will be    131072 words long.
 Raffenetti 2 integral format.
 Two-electron integral symmetry is turned off.
    84 basis functions,   113 primitive gaussians,    90 cartesian basis functions
     6 alpha electrons        5 beta electrons
       nuclear repulsion energy        14.7593806505 Hartrees.
 IExCor=10402 DFT=T Ex=LC-B+HF Corr=LYP ExCW=0 ScaHFX=  1.000000
 ScaDFX=  1.000000  1.000000  1.000000  1.000000 ScalE2=  1.000000  1.000000
 IRadAn=      0 IRanWt=     -1 IRanGd=            0 ICorTp=0
  HFx wShort=  0.000000 wLong=  0.470000 cFull=  0.000000 cShort=  0.000000 cLong=  1.000000
  DFx wShort=  0.000000 wLong=  0.470000 cFull=  0.000000 cShort=  0.000000 cLong=  1.000000
 NAtoms=    6 NActive=    6 NUniq=    6 SFac= 7.50D-01 NAtFMM=   80 NAOKFM=F Big=F
 Leave Link  301 at Wed Nov  3 01:33:48 2010, MaxMem=  786432000 cpu:       0.7
 (Enter /share/apps/G09A02/g09/l302.exe)
 NPDir=0 NMtPBC=     1 NCelOv=     1 NCel=       1 NClECP=     1 NCelD=      1
         NCelK=      1 NCelE2=     1 NClLst=     1 CellRange=     0.0.
 One-electron integrals computed using PRISM.
 NBasis=    84 RedAO= T  NBF=    84
 NBsUse=    84 1.00D-06 NBFU=    84
 Precomputing XC quadrature grid using
 IXCGrd= 2 IRadAn=           0 IRanWt=          -1 IRanGd=           0 AccXCQ= 1.00D-10.
 NRdTot=     384 NPtTot=       48740 NUsed=       51519 NTot=       51551
 NSgBfM=    90    90    90    90    90 NAtAll=     6     6.
 Leave Link  302 at Wed Nov  3 01:33:48 2010, MaxMem=  786432000 cpu:       2.5
 (Enter /share/apps/G09A02/g09/l303.exe)
 DipDrv:  MaxL=1.
 Leave Link  303 at Wed Nov  3 01:33:48 2010, MaxMem=  786432000 cpu:       0.4
 (Enter /share/apps/G09A02/g09/l401.exe)
 Harris functional with IExCor=10402 diagonalized for initial guess.
 ExpMin= 4.38D-02 ExpMax= 4.56D+03 ExpMxC= 6.82D+02 IAcc=2 IRadAn=         0 AccDes= 0.00D+00
 HarFok:  IExCor=10402 AccDes= 0.00D+00 IRadAn=         0 IDoV= 1
 ScaDFX=  1.000000  1.000000  1.000000  1.000000
 FoFCou: FMM=F IPFlag=           0 FMFlag=      100000 FMFlg1=           0
         NFxFlg=           0 DoJE=T BraDBF=F KetDBF=T FulRan=T
         Omega=  0.000000  0.000000  1.000000  0.000000  0.000000 ICntrl=     500 IOpCl=  0
         NMat0=    1 NMatS0=    1 NMatT0=    0 NMatD0=    1 NMtDS0=    0 NMtDT0=    0
         I1Cent=           4 NGrid=           0.
 Symmetry not used in FoFCou.
 Harris En= -38.5630084111351    
 Initial guess <Sx>= 0.0000 <Sy>= 0.0000 <Sz>= 0.5000 <S**2>= 0.7500 S= 0.5000
 Leave Link  401 at Wed Nov  3 01:33:49 2010, MaxMem=  786432000 cpu:       3.6
 (Enter /share/apps/G09A02/g09/l502.exe)
 UHF open shell SCF:
 Requested convergence on RMS density matrix=1.00D-08 within 128 cycles.
 Requested convergence on MAX density matrix=1.00D-06.
 Requested convergence on             energy=1.00D-06.
 No special actions if energy rises.
 Using DIIS extrapolation, IDIIS=  1040.
 Two-electron integral symmetry not used.
        51452 words used for storage of precomputed grid.
 IEnd=       95170 IEndB=       95170 NGot=   786432000 MDV=   786361661
 LenX=   786361661 LenY=   786353120
 Fock matrices will be formed incrementally for  20 cycles.

 Cycle   1  Pass 1  IDiag  1:
 FoFJK:  IHMeth= 1 ICntrl=     0 DoSepK=T KAlg= 1 I1Cent= 0 FoldK=F
 FoFCou: FMM=F IPFlag=           0 FMFlag=      100000 FMFlg1=           0
         NFxFlg=           0 DoJE=T BraDBF=F KetDBF=F FulRan=T
         Omega=  0.000000  0.000000  1.000000  0.000000  0.000000 ICntrl=     500 IOpCl=  0
         NMat0=    1 NMatS0=    1 NMatT0=    0 NMatD0=    1 NMtDS0=    0 NMtDT0=    0
         I1Cent=           0 NGrid=           0.
 Symmetry not used in FoFCou.
 E= -40.8004935336061    
 DIIS: error= 3.45D-02 at cycle   1 NSaved=   1.
 NSaved= 1 IEnMin= 1 EnMin= -40.8004935336061     IErMin= 1 ErrMin= 3.45D-02
 ErrMax= 3.45D-02 EMaxC= 1.00D-01 BMatC= 2.54D-01 BMatP= 2.54D-01
 IDIUse=3 WtCom= 6.55D-01 WtEn= 3.45D-01
 Coeff-Com:  0.100D+01
 Coeff-En:   0.100D+01
 Coeff:      0.100D+01
 Gap=     0.514 Goal=   None    Shift=    0.000
 Gap=     0.351 Goal=   None    Shift=    0.000
 GapD=    0.351 DampG=1.000 DampE=0.500 DampFc=0.5000 IDamp=-1.
 Damping current iteration by 5.00D-01
 RMSDP=4.30D-03 MaxDP=1.80D-01              OVMax= 1.63D-01

 Cycle   2  Pass 1  IDiag  1:
 RMSU=  1.68D-03    CP:  9.14D-01
 FoFJK:  IHMeth= 1 ICntrl=     0 DoSepK=T KAlg= 1 I1Cent= 0 FoldK=F
 E= -40.8417897988355     Delta-E=       -0.041296265229 Rises=F Damp=T
 DIIS: error= 1.37D-02 at cycle   2 NSaved=   2.
 NSaved= 2 IEnMin= 2 EnMin= -40.8417897988355     IErMin= 2 ErrMin= 1.37D-02
 ErrMax= 1.37D-02 EMaxC= 1.00D-01 BMatC= 2.16D-02 BMatP= 2.54D-01
 IDIUse=3 WtCom= 8.63D-01 WtEn= 1.37D-01
 Coeff-Com: -0.223D+00 0.122D+01
 Coeff-En:   0.000D+00 0.100D+01
 Coeff:     -0.193D+00 0.119D+01
 Gap=     0.572 Goal=   None    Shift=    0.000
 Gap=     0.470 Goal=   None    Shift=    0.000
 RMSDP=2.26D-03 MaxDP=1.19D-01 DE=-4.13D-02 OVMax= 4.41D-02

 Cycle   3  Pass 1  IDiag  1:
 RMSU=  8.66D-04    CP:  8.43D-01  1.96D+00
 FoFJK:  IHMeth= 1 ICntrl=     0 DoSepK=T KAlg= 1 I1Cent= 0 FoldK=F
 E= -40.8826270183797     Delta-E=       -0.040837219544 Rises=F Damp=F
 DIIS: error= 3.61D-03 at cycle   3 NSaved=   3.
 NSaved= 3 IEnMin= 3 EnMin= -40.8826270183797     IErMin= 3 ErrMin= 3.61D-03
 ErrMax= 3.61D-03 EMaxC= 1.00D-01 BMatC= 9.40D-04 BMatP= 2.16D-02
 IDIUse=3 WtCom= 9.64D-01 WtEn= 3.61D-02
 Coeff-Com:  0.463D-01-0.297D+00 0.125D+01
 Coeff-En:   0.000D+00 0.000D+00 0.100D+01
 Coeff:      0.447D-01-0.286D+00 0.124D+01
 Gap=     0.515 Goal=   None    Shift=    0.000
 Gap=     0.502 Goal=   None    Shift=    0.000
 RMSDP=5.70D-04 MaxDP=3.12D-02 DE=-4.08D-02 OVMax= 3.65D-02

 Cycle   4  Pass 1  IDiag  1:
 RMSU=  2.64D-04    CP:  8.29D-01  2.14D+00  1.31D+00
 FoFJK:  IHMeth= 1 ICntrl=     0 DoSepK=T KAlg= 1 I1Cent= 0 FoldK=F
 E= -40.8835364710470     Delta-E=       -0.000909452667 Rises=F Damp=F
 DIIS: error= 4.88D-04 at cycle   4 NSaved=   4.
 NSaved= 4 IEnMin= 4 EnMin= -40.8835364710470     IErMin= 4 ErrMin= 4.88D-04
 ErrMax= 4.88D-04 EMaxC= 1.00D-01 BMatC= 2.19D-05 BMatP= 9.40D-04
 IDIUse=3 WtCom= 9.95D-01 WtEn= 4.88D-03
 Coeff-Com: -0.416D-02-0.280D-02-0.106D+00 0.111D+01
 Coeff-En:   0.000D+00 0.000D+00 0.000D+00 0.100D+01
 Coeff:     -0.414D-02-0.279D-02-0.106D+00 0.111D+01
 Gap=     0.513 Goal=   None    Shift=    0.000
 Gap=     0.502 Goal=   None    Shift=    0.000
 RMSDP=9.15D-05 MaxDP=4.95D-03 DE=-9.09D-04 OVMax= 5.79D-03

 Cycle   5  Pass 1  IDiag  1:
 RMSU=  3.86D-05    CP:  8.27D-01  2.16D+00  1.34D+00  1.23D+00
 FoFJK:  IHMeth= 1 ICntrl=     0 DoSepK=T KAlg= 1 I1Cent= 0 FoldK=F
 E= -40.8835559338408     Delta-E=       -0.000019462794 Rises=F Damp=F
 DIIS: error= 6.01D-05 at cycle   5 NSaved=   5.
 NSaved= 5 IEnMin= 5 EnMin= -40.8835559338408     IErMin= 5 ErrMin= 6.01D-05
 ErrMax= 6.01D-05 EMaxC= 1.00D-01 BMatC= 2.28D-07 BMatP= 2.19D-05
 IDIUse=1 WtCom= 1.00D+00 WtEn= 0.00D+00
 Coeff-Com:  0.630D-03 0.285D-02 0.122D-01-0.240D+00 0.122D+01
 Coeff:      0.630D-03 0.285D-02 0.122D-01-0.240D+00 0.122D+01
 Gap=     0.513 Goal=   None    Shift=    0.000
 Gap=     0.502 Goal=   None    Shift=    0.000
 RMSDP=1.85D-05 MaxDP=7.60D-04 DE=-1.95D-05 OVMax= 4.77D-04

 Cycle   6  Pass 1  IDiag  1:
 RMSU=  1.94D-06    CP:  8.27D-01  2.16D+00  1.34D+00  1.26D+00  1.42D+00
 FoFJK:  IHMeth= 1 ICntrl=     0 DoSepK=T KAlg= 1 I1Cent= 0 FoldK=F
 E= -40.8835561256627     Delta-E=       -0.000000191822 Rises=F Damp=F
 DIIS: error= 1.20D-05 at cycle   6 NSaved=   6.
 NSaved= 6 IEnMin= 6 EnMin= -40.8835561256627     IErMin= 6 ErrMin= 1.20D-05
 ErrMax= 1.20D-05 EMaxC= 1.00D-01 BMatC= 9.08D-09 BMatP= 2.28D-07
 IDIUse=1 WtCom= 1.00D+00 WtEn= 0.00D+00
 Coeff-Com:  0.102D-04-0.482D-03-0.487D-03 0.250D-01-0.230D+00 0.121D+01
 Coeff:      0.102D-04-0.482D-03-0.487D-03 0.250D-01-0.230D+00 0.121D+01
 Gap=     0.513 Goal=   None    Shift=    0.000
 Gap=     0.502 Goal=   None    Shift=    0.000
 RMSDP=2.94D-06 MaxDP=1.16D-04 DE=-1.92D-07 OVMax= 7.83D-05

 Cycle   7  Pass 1  IDiag  1:
 RMSU=  4.06D-07    CP:  8.27D-01  2.16D+00  1.34D+00  1.26D+00  1.48D+00
                    CP:  1.39D+00
 FoFJK:  IHMeth= 1 ICntrl=     0 DoSepK=T KAlg= 1 I1Cent= 0 FoldK=F
 E= -40.8835561334397     Delta-E=       -0.000000007777 Rises=F Damp=F
 DIIS: error= 3.48D-06 at cycle   7 NSaved=   7.
 NSaved= 7 IEnMin= 7 EnMin= -40.8835561334397     IErMin= 7 ErrMin= 3.48D-06
 ErrMax= 3.48D-06 EMaxC= 1.00D-01 BMatC= 7.85D-10 BMatP= 9.08D-09
 IDIUse=1 WtCom= 1.00D+00 WtEn= 0.00D+00
 Coeff-Com: -0.425D-04-0.148D-03-0.754D-03 0.135D-01-0.622D-01-0.772D-01
 Coeff-Com:  0.113D+01
 Coeff:     -0.425D-04-0.148D-03-0.754D-03 0.135D-01-0.622D-01-0.772D-01
 Coeff:      0.113D+01
 Gap=     0.513 Goal=   None    Shift=    0.000
 Gap=     0.502 Goal=   None    Shift=    0.000
 RMSDP=4.79D-07 MaxDP=1.53D-05 DE=-7.78D-09 OVMax= 1.82D-05

 Cycle   8  Pass 1  IDiag  1:
 RMSU=  8.19D-08    CP:  8.27D-01  2.16D+00  1.34D+00  1.26D+00  1.49D+00
                    CP:  1.50D+00  1.36D+00
 FoFJK:  IHMeth= 1 ICntrl=     0 DoSepK=T KAlg= 1 I1Cent= 0 FoldK=F
 E= -40.8835561340793     Delta-E=       -0.000000000640 Rises=F Damp=F
 DIIS: error= 1.29D-06 at cycle   8 NSaved=   8.
 NSaved= 8 IEnMin= 8 EnMin= -40.8835561340793     IErMin= 8 ErrMin= 1.29D-06
 ErrMax= 1.29D-06 EMaxC= 1.00D-01 BMatC= 1.06D-10 BMatP= 7.85D-10
 IDIUse=1 WtCom= 1.00D+00 WtEn= 0.00D+00
 Coeff-Com:  0.161D-04 0.111D-03 0.429D-03-0.873D-02 0.493D-01-0.683D-01
 Coeff-Com: -0.499D+00 0.153D+01
 Coeff:      0.161D-04 0.111D-03 0.429D-03-0.873D-02 0.493D-01-0.683D-01
 Coeff:     -0.499D+00 0.153D+01
 Gap=     0.513 Goal=   None    Shift=    0.000
 Gap=     0.502 Goal=   None    Shift=    0.000
 RMSDP=1.34D-07 MaxDP=2.63D-06 DE=-6.40D-10 OVMax= 8.82D-06

 Cycle   9  Pass 1  IDiag  1:
 RMSU=  3.03D-08    CP:  8.27D-01  2.16D+00  1.34D+00  1.26D+00  1.49D+00
                    CP:  1.52D+00  1.50D+00  1.86D+00
 FoFJK:  IHMeth= 1 ICntrl=     0 DoSepK=T KAlg= 1 I1Cent= 0 FoldK=F
 E= -40.8835561341744     Delta-E=       -0.000000000095 Rises=F Damp=F
 DIIS: error= 3.40D-07 at cycle   9 NSaved=   9.
 NSaved= 9 IEnMin= 9 EnMin= -40.8835561341744     IErMin= 9 ErrMin= 3.40D-07
 ErrMax= 3.40D-07 EMaxC= 1.00D-01 BMatC= 5.86D-12 BMatP= 1.06D-10
 IDIUse=1 WtCom= 1.00D+00 WtEn= 0.00D+00
 Coeff-Com: -0.330D-06-0.211D-04-0.701D-04 0.155D-02-0.963D-02 0.288D-01
 Coeff-Com:  0.542D-01-0.465D+00 0.139D+01
 Coeff:     -0.330D-06-0.211D-04-0.701D-04 0.155D-02-0.963D-02 0.288D-01
 Coeff:      0.542D-01-0.465D+00 0.139D+01
 Gap=     0.513 Goal=   None    Shift=    0.000
 Gap=     0.502 Goal=   None    Shift=    0.000
 RMSDP=4.02D-08 MaxDP=9.25D-07 DE=-9.51D-11 OVMax= 2.09D-06

 Cycle  10  Pass 1  IDiag  1:
 RMSU=  8.52D-09    CP:  8.27D-01  2.16D+00  1.34D+00  1.26D+00  1.49D+00
                    CP:  1.51D+00  1.51D+00  2.11D+00  1.45D+00
 FoFJK:  IHMeth= 1 ICntrl=     0 DoSepK=T KAlg= 1 I1Cent= 0 FoldK=F
 E= -40.8835561341806     Delta-E=       -0.000000000006 Rises=F Damp=F
 DIIS: error= 5.43D-08 at cycle  10 NSaved=  10.
 NSaved=10 IEnMin=10 EnMin= -40.8835561341806     IErMin=10 ErrMin= 5.43D-08
 ErrMax= 5.43D-08 EMaxC= 1.00D-01 BMatC= 2.09D-13 BMatP= 5.86D-12
 IDIUse=1 WtCom= 1.00D+00 WtEn= 0.00D+00
 Coeff-Com: -0.318D-06 0.811D-05 0.204D-04-0.544D-03 0.350D-02-0.133D-01
 Coeff-Com: -0.108D-01 0.188D+00-0.695D+00 0.153D+01
 Coeff:     -0.318D-06 0.811D-05 0.204D-04-0.544D-03 0.350D-02-0.133D-01
 Coeff:     -0.108D-01 0.188D+00-0.695D+00 0.153D+01
 Gap=     0.513 Goal=   None    Shift=    0.000
 Gap=     0.502 Goal=   None    Shift=    0.000
 RMSDP=6.71D-09 MaxDP=1.36D-07 DE=-6.25D-12 OVMax= 2.83D-07

 SCF Done:  E(ULC-B+HF-LYP) =  -40.8835561342     A.U. after   10 cycles
             Convg  =    0.6714D-08             -V/T =  2.0051
 <Sx>= 0.0000 <Sy>= 0.0000 <Sz>= 0.5000 <S**2>= 0.7500 S= 0.5000
 <L.S>= 0.000000000000E+00
 KE= 4.067552665697D+01 PE=-1.236716046455D+02 EE= 2.735314120388D+01
 Annihilation of the first spin contaminant:
 S**2 before annihilation     0.7500,   after     0.7500
 Leave Link  502 at Wed Nov  3 01:34:18 2010, MaxMem=  786432000 cpu:     231.3
 (Enter /share/apps/G09A02/g09/l601.exe)
 Copying SCF densities to generalized density rwf, IOpCl= 1 IROHF=0.

 **********************************************************************

            Population analysis using the SCF density.

 **********************************************************************

 Alpha  occ. eigenvalues --  -10.11329  -0.85943  -0.52615  -0.52523  -0.52523
 Alpha  occ. eigenvalues --   -0.45019
 Alpha virt. eigenvalues --    0.06254   0.09661   0.09661   0.10614   0.22666
 Alpha virt. eigenvalues --    0.22678   0.22678   0.27357   0.36821   0.36841
 Alpha virt. eigenvalues --    0.36841   0.41866   0.41866   0.42426   0.61767
 Alpha virt. eigenvalues --    0.64715   0.64715   0.68904   0.68904   0.72059
 Alpha virt. eigenvalues --    0.74323   0.79901   0.80287   0.80287   0.92222
 Alpha virt. eigenvalues --    0.99183   0.99187   0.99187   1.10247   1.10247
 Alpha virt. eigenvalues --    1.25205   1.25205   1.26466   1.40980   1.40980
 Alpha virt. eigenvalues --    1.43720   1.69106   2.06621   2.06621   2.07850
 Alpha virt. eigenvalues --    2.07850   2.08345   2.33725   2.51243   2.78778
 Alpha virt. eigenvalues --    2.78778   2.80119   3.09008   3.09008   3.09016
 Alpha virt. eigenvalues --    3.43933   3.43933   3.45056   3.65207   3.65207
 Alpha virt. eigenvalues --    3.65425   3.80161   3.80161   3.87901   4.07952
 Alpha virt. eigenvalues --    4.31084   4.31084   4.32072   4.35663   4.35663
 Alpha virt. eigenvalues --    4.58744   4.58744   4.58753   5.01135   5.89383
 Alpha virt. eigenvalues --    5.89383   5.89424   7.30313   7.30313   7.91482
 Alpha virt. eigenvalues --    7.91482   7.92175  24.29248
  Beta  occ. eigenvalues --  -10.11323  -0.85925  -0.52519  -0.52519  -0.52515
  Beta virt. eigenvalues --   -0.02303   0.06517   0.09577   0.09577   0.11001
  Beta virt. eigenvalues --    0.22666   0.22666   0.22994   0.27319   0.36832
  Beta virt. eigenvalues --    0.36832   0.40185   0.41849   0.41849   0.45588
  Beta virt. eigenvalues --    0.62906   0.64739   0.64739   0.72074   0.73103
  Beta virt. eigenvalues --    0.73103   0.75076   0.79934   0.80290   0.80290
  Beta virt. eigenvalues --    0.93872   0.99181   0.99181   0.99183   1.10243
  Beta virt. eigenvalues --    1.10244   1.25202   1.25203   1.26494   1.40981
  Beta virt. eigenvalues --    1.40981   1.43679   1.69112   2.06628   2.06628
  Beta virt. eigenvalues --    2.07859   2.07859   2.08333   2.50919   2.55039
  Beta virt. eigenvalues --    2.78784   2.78784   2.80144   3.09019   3.09021
  Beta virt. eigenvalues --    3.09021   3.43939   3.43939   3.45087   3.65238
  Beta virt. eigenvalues --    3.65238   3.65434   3.95714   3.95714   4.02926
  Beta virt. eigenvalues --    4.08113   4.31086   4.31086   4.32243   4.35664
  Beta virt. eigenvalues --    4.35664   4.58747   4.58747   4.58755   5.01137
  Beta virt. eigenvalues --    5.89387   5.89387   5.89434   7.30331   7.30331
  Beta virt. eigenvalues --    7.91492   7.91492   7.92199  24.29256
          Condensed to atoms (all electrons):
              1          2          3          4          5          6
     1  C    5.061112   0.397675   0.401253   0.401253   0.401253   0.002436
     2  H    0.397675   0.492350  -0.017573  -0.017573  -0.017573  -0.000564
     3  H    0.401253  -0.017573   0.484096  -0.017100  -0.017100  -0.000050
     4  H    0.401253  -0.017573  -0.017100   0.484096  -0.017100  -0.000050
     5  H    0.401253  -0.017573  -0.017100  -0.017100   0.484096  -0.000050
     6  H    0.002436  -0.000564  -0.000050  -0.000050  -0.000050   0.995981
 Mulliken atomic charges:
              1
     1  C   -0.664981
     2  H    0.163259
     3  H    0.166474
     4  H    0.166475
     5  H    0.166475
     6  H    0.002297
 Sum of Mulliken atomic charges =   0.00000
 Mulliken charges with hydrogens summed into heavy atoms:
              1
     1  C    0.000000
 Sum of Mulliken charges with hydrogens summed into heavy atoms =   0.00000
          Atomic-Atomic Spin Densities.
              1          2          3          4          5          6
     1  C    0.010725   0.000361  -0.000291  -0.000291  -0.000291   0.002139
     2  H    0.000361  -0.010352   0.000701   0.000701   0.000701  -0.001076
     3  H   -0.000291   0.000701  -0.000135  -0.000152  -0.000152  -0.000041
     4  H   -0.000291   0.000701  -0.000152  -0.000135  -0.000152  -0.000041
     5  H   -0.000291   0.000701  -0.000152  -0.000152  -0.000135  -0.000041
     6  H    0.002139  -0.001076  -0.000041  -0.000041  -0.000041   0.995882
 Mulliken atomic spin densities:
              1
     1  C    0.012350
     2  H   -0.008965
     3  H   -0.000069
     4  H   -0.000069
     5  H   -0.000069
     6  H    0.996822
 Sum of Mulliken atomic spin densities =   1.00000
 Electronic spatial extent (au):  <R**2>=             97.4527
 Charge=              0.0000 electrons
 Dipole moment (field-independent basis, Debye):
    X=              0.0000    Y=              0.0000    Z=              0.0121  Tot=              0.0121
 Quadrupole moment (field-independent basis, Debye-Ang):
   XX=             -9.9513   YY=             -9.9513   ZZ=             -9.8428
   XY=              0.0000   XZ=              0.0000   YZ=              0.0000
 Traceless Quadrupole moment (field-independent basis, Debye-Ang):
   XX=             -0.0362   YY=             -0.0362   ZZ=              0.0724
   XY=              0.0000   XZ=              0.0000   YZ=              0.0000
 Octapole moment (field-independent basis, Debye-Ang**2):
  XXX=              0.6628  YYY=              0.0000  ZZZ=            -15.7764  XYY=             -0.6628
  XXY=              0.0000  XXZ=             -6.2552  XZZ=              0.0000  YZZ=              0.0000
  YYZ=             -6.2552  XYZ=              0.0000
 Hexadecapole moment (field-independent basis, Debye-Ang**3):
 XXXX=            -18.4942 YYYY=            -18.4942 ZZZZ=           -154.9515 XXXY=              0.0000
 XXXZ=             -0.4215 YYYX=              0.0000 YYYZ=              0.0000 ZZZX=              0.0000
 ZZZY=              0.0000 XXYY=             -6.1647 XXZZ=            -29.8135 YYZZ=            -29.8135
 XXYZ=              0.0000 YYXZ=              0.4215 ZZXY=              0.0000
 N-N= 1.475938065048D+01 E-N=-1.843499579828D+02  KE= 6.076836961445D+01
                          Isotropic Fermi Contact Couplings
        Atom                 a.u.       MegaHertz       Gauss      10(-4) cm-1
     1  C(13)              0.00118       1.32354       0.47227       0.44148
     2  H(1)               0.00022       0.98767       0.35243       0.32945
     3  H(1)              -0.00001      -0.04488      -0.01602      -0.01497
     4  H(1)              -0.00001      -0.04489      -0.01602      -0.01497
     5  H(1)              -0.00001      -0.04489      -0.01602      -0.01497
     6  H(1)               0.28623    1279.42843     456.53186     426.77139
 --------------------------------------------------------
       Center         ----  Spin Dipole Couplings  ----
                      3XX-RR        3YY-RR        3ZZ-RR
 --------------------------------------------------------
     1   Atom       -0.004439     -0.004439      0.008879
     2   Atom       -0.006327     -0.006327      0.012653
     3   Atom       -0.001115     -0.001803      0.002918
     4   Atom       -0.001631     -0.001287      0.002918
     5   Atom       -0.001631     -0.001287      0.002918
     6   Atom        0.000012      0.000012     -0.000025
 --------------------------------------------------------
                        XY            XZ            YZ
 --------------------------------------------------------
     1   Atom        0.000000      0.000000      0.000000
     2   Atom        0.000000      0.000000      0.000000
     3   Atom        0.000000     -0.001167      0.000000
     4   Atom        0.000298      0.000583      0.001010
     5   Atom       -0.000298      0.000583     -0.001010
     6   Atom        0.000000      0.000000      0.000000
 --------------------------------------------------------


 ---------------------------------------------------------------------------------
              Anisotropic Spin Dipole Couplings in Principal Axis System
 ---------------------------------------------------------------------------------

       Atom             a.u.   MegaHertz   Gauss  10(-4) cm-1        Axes

              Baa    -0.0044    -0.596    -0.213    -0.199  0.0000  1.0000  0.0000
     1 C(13)  Bbb    -0.0044    -0.596    -0.213    -0.199  1.0000  0.0000  0.0000
              Bcc     0.0089     1.191     0.425     0.397  0.0000  0.0000  1.0000
 
              Baa    -0.0063    -3.376    -1.204    -1.126  0.0000  1.0000  0.0000
     2 H(1)   Bbb    -0.0063    -3.376    -1.204    -1.126  1.0000  0.0000  0.0000
              Bcc     0.0127     6.751     2.409     2.252  0.0000  0.0000  1.0000
 
              Baa    -0.0018    -0.962    -0.343    -0.321  0.0000  1.0000  0.0000
     3 H(1)   Bbb    -0.0014    -0.762    -0.272    -0.254  0.9658  0.0000  0.2592
              Bcc     0.0032     1.724     0.615     0.575 -0.2592  0.0000  0.9658
 
              Baa    -0.0018    -0.962    -0.343    -0.321  0.8660 -0.5000  0.0000
     4 H(1)   Bbb    -0.0014    -0.762    -0.272    -0.254  0.4829  0.8364 -0.2592
              Bcc     0.0032     1.724     0.615     0.575  0.1296  0.2245  0.9658
 
              Baa    -0.0018    -0.962    -0.343    -0.321  0.8660  0.5000  0.0000
     5 H(1)   Bbb    -0.0014    -0.762    -0.272    -0.254 -0.4829  0.8364  0.2592
              Bcc     0.0032     1.724     0.615     0.575  0.1296 -0.2245  0.9658
 
              Baa     0.0000    -0.013    -0.005    -0.004  0.0000  0.0000  1.0000
     6 H(1)   Bbb     0.0000     0.007     0.002     0.002  1.0000  0.0000  0.0000
              Bcc     0.0000     0.007     0.002     0.002  0.0000  1.0000  0.0000
 

 ---------------------------------------------------------------------------------

 No NMR shielding tensors so no spin-rotation constants.
 Leave Link  601 at Wed Nov  3 01:34:18 2010, MaxMem=  786432000 cpu:       4.2
 (Enter /share/apps/G09A02/g09/l9999.exe)
 1\1\GINC-COMPUTE-0-7\SP\ULC-BLYP\6-311+G(3df,2p)\C1H5(2)\WENXINZY\03-N
 ov-2010\0\\#p lc-blyp/6-311+g(3df,2p) nosymm scf=tight\\48 H_CH4\\0,2\
 C\H,1,1.0892661\H,1,1.0892931,2,109.468388\H,1,1.0892931,2,109.468388,
 3,120.,0\H,1,1.0892931,2,109.468388,3,-120.,0\H,2,2.9543112,1,180.,3,0
 .,0\\Version=EM64L-G09RevA.02\HF=-40.8835561\S2=0.750021\S2-1=0.\S2A=0
 .75\RMSD=6.714e-09\Dipole=0.0000002,0.,0.0047577\Quadrupole=-0.0268979
 ,-0.0268952,0.0537931,0.,-0.0000005,0.\PG=C03V [C3(H1H1C1),3SGV(H1)]\\
 @


 FLOATING POINT NUMBERS ARE LIKE SANDPILES:
 EVERY TIME THAT YOU MOVE ONE, YOU LOSE A LITTLE SAND 
 AND YOU PICK UP A LITTLE DIRT.
 Job cpu time:  0 days  0 hours  4 minutes  5.5 seconds.
 File lengths (MBytes):  RWF=      9 Int=      0 D2E=      0 Chk=      1 Scr=      1
 Normal termination of Gaussian 09 at Wed Nov  3 01:34:18 2010.
