 Entering Gaussian System, Link 0=/share/apps/G09A02/g09/g09
 Input=./.script12553/Job_H2_CH3_18.com
 Output=./.script12553/Job_H2_CH3_18.log
 Initial command:
 /share/apps/G09A02/g09/l1.exe /state/partition1/wenxinzy/scratch/Gau-19394.inp -scrdir=/state/partition1/wenxinzy/scratch/
 Default is to use a total of   8 processors:
                                8 via shared-memory
                                1 via Linda
 Entering Link 1 = /share/apps/G09A02/g09/l1.exe PID=     19395.
  
 Copyright (c) 1988,1990,1992,1993,1995,1998,2003,2009, Gaussian, Inc.
                  All Rights Reserved.
  
 This is part of the Gaussian(R) 09 program.  It is based on
 the Gaussian(R) 03 system (copyright 2003, Gaussian, Inc.),
 the Gaussian(R) 98 system (copyright 1998, Gaussian, Inc.),
 the Gaussian(R) 94 system (copyright 1995, Gaussian, Inc.),
 the Gaussian 92(TM) system (copyright 1992, Gaussian, Inc.),
 the Gaussian 90(TM) system (copyright 1990, Gaussian, Inc.),
 the Gaussian 88(TM) system (copyright 1988, Gaussian, Inc.),
 the Gaussian 86(TM) system (copyright 1986, Carnegie Mellon
 University), and the Gaussian 82(TM) system (copyright 1983,
 Carnegie Mellon University). Gaussian is a federally registered
 trademark of Gaussian, Inc.
  
 This software contains proprietary and confidential information,
 including trade secrets, belonging to Gaussian, Inc.
  
 This software is provided under written license and may be
 used, copied, transmitted, or stored only in accord with that
 written license.
  
 The following legend is applicable only to US Government
 contracts under FAR:
  
                    RESTRICTED RIGHTS LEGEND
  
 Use, reproduction and disclosure by the US Government is
 subject to restrictions as set forth in subparagraphs (a)
 and (c) of the Commercial Computer Software - Restricted
 Rights clause in FAR 52.227-19.
  
 Gaussian, Inc.
 340 Quinnipiac St., Bldg. 40, Wallingford CT 06492
  
  
 ---------------------------------------------------------------
 Warning -- This program may not be used in any manner that
 competes with the business of Gaussian, Inc. or will provide
 assistance to any competitor of Gaussian, Inc.  The licensee
 of this program is prohibited from giving any competitor of
 Gaussian, Inc. access to this program.  By using this program,
 the user acknowledges that Gaussian, Inc. is engaged in the
 business of creating and licensing software in the field of
 computational chemistry and represents and warrants to the
 licensee that it is not a competitor of Gaussian, Inc. and that
 it will not use this program in any manner prohibited above.
 ---------------------------------------------------------------
  

 Cite this work as:
 Gaussian 09, Revision A.02,
 M. J. Frisch, G. W. Trucks, H. B. Schlegel, G. E. Scuseria, 
 M. A. Robb, J. R. Cheeseman, G. Scalmani, V. Barone, B. Mennucci, 
 G. A. Petersson, H. Nakatsuji, M. Caricato, X. Li, H. P. Hratchian, 
 A. F. Izmaylov, J. Bloino, G. Zheng, J. L. Sonnenberg, M. Hada, 
 M. Ehara, K. Toyota, R. Fukuda, J. Hasegawa, M. Ishida, T. Nakajima, 
 Y. Honda, O. Kitao, H. Nakai, T. Vreven, J. A. Montgomery, Jr., 
 J. E. Peralta, F. Ogliaro, M. Bearpark, J. J. Heyd, E. Brothers, 
 K. N. Kudin, V. N. Staroverov, R. Kobayashi, J. Normand, 
 K. Raghavachari, A. Rendell, J. C. Burant, S. S. Iyengar, J. Tomasi, 
 M. Cossi, N. Rega, J. M. Millam, M. Klene, J. E. Knox, J. B. Cross, 
 V. Bakken, C. Adamo, J. Jaramillo, R. Gomperts, R. E. Stratmann, 
 O. Yazyev, A. J. Austin, R. Cammi, C. Pomelli, J. W. Ochterski, 
 R. L. Martin, K. Morokuma, V. G. Zakrzewski, G. A. Voth, 
 P. Salvador, J. J. Dannenberg, S. Dapprich, A. D. Daniels, 
 O. Farkas, J. B. Foresman, J. V. Ortiz, J. Cioslowski, 
 and D. J. Fox, Gaussian, Inc., Wallingford CT, 2009.
 
 ******************************************
 Gaussian 09:  EM64L-G09RevA.02 11-Jun-2009
                 3-Nov-2010 
 ******************************************
 %chk=/state/partition1/wenxinzy/scratch/H2_CH3_18.chk
 %nproc=8
 Will use up to    8 processors via shared memory.
 %mem=6000mb
 -------------------------------------------
 #p lc-blyp/6-311+g(3df,2p) nosymm scf=tight
 -------------------------------------------
 1/38=1/1;
 2/12=2,15=1,17=6,18=5,40=1/2;
 3/5=4,6=6,7=216,11=2,16=1,25=1,30=1,74=1000402/1,2,3;
 4//1;
 5/5=2,32=2,38=5/2;
 6/7=2,8=2,9=2,10=2,28=1/1;
 99/5=1,9=1/99;
 Leave Link    1 at Wed Nov  3 01:46:10 2010, MaxMem=  786432000 cpu:       0.5
 (Enter /share/apps/G09A02/g09/l101.exe)
 ---------
 19 H2+CH3
 ---------
 Symbolic Z-matrix:
 Charge =  0 Multiplicity = 2
 C
 H1                   C    R1
 H2                   C    R2       H1   A1
 H3                   C    R2       H1   A1       H2    120.     0
 H4                   C    R2       H1   A1       H2   -120.     0
 H5                   H1   R3       C     180.     H2    0.       0
       Variables:
  R1                    2.41797                  
  R2                    1.07929                  
  A1                   90.55935                  
  R3                    0.74597                  
 
 NAtoms=      6 NQM=      6 NQMF=      0 NMic=      0 NMicF=      0 NTot=      6.
                    Isotopes and Nuclear Properties:
 (Nuclear quadrupole moments (NQMom) in fm**2, nuclear magnetic moments (NMagM)
  in nuclear magnetons)

  Atom         1           2           3           4           5           6
 IAtWgt=          12           1           1           1           1           1
 AtmWgt=  12.0000000   1.0078250   1.0078250   1.0078250   1.0078250   1.0078250
 NucSpn=           0           1           1           1           1           1
 AtZEff=   0.0000000   0.0000000   0.0000000   0.0000000   0.0000000   0.0000000
 NQMom=    0.0000000   0.0000000   0.0000000   0.0000000   0.0000000   0.0000000
 NMagM=    0.0000000   2.7928460   2.7928460   2.7928460   2.7928460   2.7928460
 Leave Link  101 at Wed Nov  3 01:46:10 2010, MaxMem=  786432000 cpu:       1.2
 (Enter /share/apps/G09A02/g09/l202.exe)
                          Input orientation:                          
 ---------------------------------------------------------------------
 Center     Atomic      Atomic             Coordinates (Angstroms)
 Number     Number       Type             X           Y           Z
 ---------------------------------------------------------------------
      1          6           0        0.000000    0.000000    0.000000
      2          1           0        0.000000    0.000000    2.417970
      3          1           0        1.079239    0.000000   -0.010536
      4          1           0       -0.539620   -0.934649   -0.010536
      5          1           0       -0.539620    0.934649   -0.010536
      6          1           0        0.000000    0.000000    3.163937
 ---------------------------------------------------------------------
                    Distance matrix (angstroms):
                    1          2          3          4          5
     1  C    0.000000
     2  H    2.417970   0.000000
     3  H    1.079291   2.657517   0.000000
     4  H    1.079291   2.657517   1.869297   0.000000
     5  H    1.079291   2.657517   1.869297   1.869297   0.000000
     6  H    3.163937   0.745968   3.352915   3.352915   3.352915
                    6
     6  H    0.000000
 Symmetry turned off by external request.
 Stoichiometry    CH5(2)
 Framework group  C3V[C3(HHC),3SGV(H)]
 Deg. of freedom     4
 Full point group                 C3V     NOp   6
 Rotational constants (GHZ):    143.5077384     31.7729529     31.7729529
 Leave Link  202 at Wed Nov  3 01:46:10 2010, MaxMem=  786432000 cpu:       0.1
 (Enter /share/apps/G09A02/g09/l301.exe)
 Standard basis: 6-311+G(3df,2p) (5D, 7F)
 Ernie: Thresh=  0.10000D-02 Tol=  0.10000D-05 Strict=F.
 Integral buffers will be    131072 words long.
 Raffenetti 2 integral format.
 Two-electron integral symmetry is turned off.
    84 basis functions,   113 primitive gaussians,    90 cartesian basis functions
     6 alpha electrons        5 beta electrons
       nuclear repulsion energy        13.7715464224 Hartrees.
 IExCor=10402 DFT=T Ex=LC-B+HF Corr=LYP ExCW=0 ScaHFX=  1.000000
 ScaDFX=  1.000000  1.000000  1.000000  1.000000 ScalE2=  1.000000  1.000000
 IRadAn=      0 IRanWt=     -1 IRanGd=            0 ICorTp=0
  HFx wShort=  0.000000 wLong=  0.470000 cFull=  0.000000 cShort=  0.000000 cLong=  1.000000
  DFx wShort=  0.000000 wLong=  0.470000 cFull=  0.000000 cShort=  0.000000 cLong=  1.000000
 NAtoms=    6 NActive=    6 NUniq=    6 SFac= 7.50D-01 NAtFMM=   80 NAOKFM=F Big=F
 Leave Link  301 at Wed Nov  3 01:46:10 2010, MaxMem=  786432000 cpu:       0.7
 (Enter /share/apps/G09A02/g09/l302.exe)
 NPDir=0 NMtPBC=     1 NCelOv=     1 NCel=       1 NClECP=     1 NCelD=      1
         NCelK=      1 NCelE2=     1 NClLst=     1 CellRange=     0.0.
 One-electron integrals computed using PRISM.
 NBasis=    84 RedAO= T  NBF=    84
 NBsUse=    84 1.00D-06 NBFU=    84
 Precomputing XC quadrature grid using
 IXCGrd= 2 IRadAn=           0 IRanWt=          -1 IRanGd=           0 AccXCQ= 1.00D-10.
 NRdTot=     383 NPtTot=       48302 NUsed=       51074 NTot=       51106
 NSgBfM=    90    90    90    90    90 NAtAll=     6     6.
 Leave Link  302 at Wed Nov  3 01:46:11 2010, MaxMem=  786432000 cpu:       2.5
 (Enter /share/apps/G09A02/g09/l303.exe)
 DipDrv:  MaxL=1.
 Leave Link  303 at Wed Nov  3 01:46:11 2010, MaxMem=  786432000 cpu:       0.4
 (Enter /share/apps/G09A02/g09/l401.exe)
 Harris functional with IExCor=10402 diagonalized for initial guess.
 ExpMin= 4.38D-02 ExpMax= 4.56D+03 ExpMxC= 6.82D+02 IAcc=2 IRadAn=         0 AccDes= 0.00D+00
 HarFok:  IExCor=10402 AccDes= 0.00D+00 IRadAn=         0 IDoV= 1
 ScaDFX=  1.000000  1.000000  1.000000  1.000000
 FoFCou: FMM=F IPFlag=           0 FMFlag=      100000 FMFlg1=           0
         NFxFlg=           0 DoJE=T BraDBF=F KetDBF=T FulRan=T
         Omega=  0.000000  0.000000  1.000000  0.000000  0.000000 ICntrl=     500 IOpCl=  0
         NMat0=    1 NMatS0=    1 NMatT0=    0 NMatD0=    1 NMtDS0=    0 NMtDT0=    0
         I1Cent=           4 NGrid=           0.
 Symmetry not used in FoFCou.
 Harris En= -38.5347331322093    
 Initial guess <Sx>= 0.0000 <Sy>= 0.0000 <Sz>= 0.5000 <S**2>= 0.7500 S= 0.5000
 Leave Link  401 at Wed Nov  3 01:46:11 2010, MaxMem=  786432000 cpu:       3.7
 (Enter /share/apps/G09A02/g09/l502.exe)
 UHF open shell SCF:
 Requested convergence on RMS density matrix=1.00D-08 within 128 cycles.
 Requested convergence on MAX density matrix=1.00D-06.
 Requested convergence on             energy=1.00D-06.
 No special actions if energy rises.
 Using DIIS extrapolation, IDIIS=  1040.
 Two-electron integral symmetry not used.
        51007 words used for storage of precomputed grid.
 IEnd=       94725 IEndB=       94725 NGot=   786432000 MDV=   786362106
 LenX=   786362106 LenY=   786353565
 Fock matrices will be formed incrementally for  20 cycles.

 Cycle   1  Pass 1  IDiag  1:
 FoFJK:  IHMeth= 1 ICntrl=     0 DoSepK=T KAlg= 1 I1Cent= 0 FoldK=F
 FoFCou: FMM=F IPFlag=           0 FMFlag=      100000 FMFlg1=           0
         NFxFlg=           0 DoJE=T BraDBF=F KetDBF=F FulRan=T
         Omega=  0.000000  0.000000  1.000000  0.000000  0.000000 ICntrl=     500 IOpCl=  0
         NMat0=    1 NMatS0=    1 NMatT0=    0 NMatD0=    1 NMtDS0=    0 NMtDT0=    0
         I1Cent=           0 NGrid=           0.
 Symmetry not used in FoFCou.
 E= -40.8547775321488    
 DIIS: error= 1.94D-02 at cycle   1 NSaved=   1.
 NSaved= 1 IEnMin= 1 EnMin= -40.8547775321488     IErMin= 1 ErrMin= 1.94D-02
 ErrMax= 1.94D-02 EMaxC= 1.00D-01 BMatC= 6.31D-02 BMatP= 6.31D-02
 IDIUse=3 WtCom= 8.06D-01 WtEn= 1.94D-01
 Coeff-Com:  0.100D+01
 Coeff-En:   0.100D+01
 Coeff:      0.100D+01
 Gap=     0.388 Goal=   None    Shift=    0.000
 Gap=     0.617 Goal=   None    Shift=    0.000
 GapD=    0.388 DampG=1.000 DampE=0.500 DampFc=0.5000 IDamp=-1.
 Damping current iteration by 5.00D-01
 RMSDP=1.59D-03 MaxDP=6.56D-02              OVMax= 5.36D-02

 Cycle   2  Pass 1  IDiag  1:
 RMSU=  5.99D-04    CP:  9.80D-01
 FoFJK:  IHMeth= 1 ICntrl=     0 DoSepK=T KAlg= 1 I1Cent= 0 FoldK=F
 E= -40.8638880016052     Delta-E=       -0.009110469456 Rises=F Damp=T
 DIIS: error= 8.72D-03 at cycle   2 NSaved=   2.
 NSaved= 2 IEnMin= 2 EnMin= -40.8638880016052     IErMin= 2 ErrMin= 8.72D-03
 ErrMax= 8.72D-03 EMaxC= 1.00D-01 BMatC= 1.00D-02 BMatP= 6.31D-02
 IDIUse=3 WtCom= 9.13D-01 WtEn= 8.72D-02
 Coeff-Com: -0.420D+00 0.142D+01
 Coeff-En:   0.000D+00 0.100D+01
 Coeff:     -0.383D+00 0.138D+01
 Gap=     0.429 Goal=   None    Shift=    0.000
 Gap=     0.567 Goal=   None    Shift=    0.000
 RMSDP=9.50D-04 MaxDP=2.28D-02 DE=-9.11D-03 OVMax= 4.34D-02

 Cycle   3  Pass 1  IDiag  1:
 RMSU=  5.37D-04    CP:  9.69D-01  1.97D+00
 FoFJK:  IHMeth= 1 ICntrl=     0 DoSepK=T KAlg= 1 I1Cent= 0 FoldK=F
 E= -40.8740545464998     Delta-E=       -0.010166544895 Rises=F Damp=F
 DIIS: error= 2.71D-03 at cycle   3 NSaved=   3.
 NSaved= 3 IEnMin= 3 EnMin= -40.8740545464998     IErMin= 3 ErrMin= 2.71D-03
 ErrMax= 2.71D-03 EMaxC= 1.00D-01 BMatC= 7.34D-04 BMatP= 1.00D-02
 IDIUse=3 WtCom= 9.73D-01 WtEn= 2.71D-02
 Coeff-Com: -0.600D-01-0.791D-01 0.114D+01
 Coeff-En:   0.000D+00 0.000D+00 0.100D+01
 Coeff:     -0.584D-01-0.769D-01 0.114D+01
 Gap=     0.431 Goal=   None    Shift=    0.000
 Gap=     0.566 Goal=   None    Shift=    0.000
 RMSDP=3.10D-04 MaxDP=9.43D-03 DE=-1.02D-02 OVMax= 2.16D-02

 Cycle   4  Pass 1  IDiag  1:
 RMSU=  7.83D-05    CP:  9.65D-01  2.26D+00  1.32D+00
 FoFJK:  IHMeth= 1 ICntrl=     0 DoSepK=T KAlg= 1 I1Cent= 0 FoldK=F
 E= -40.8746025276747     Delta-E=       -0.000547981175 Rises=F Damp=F
 DIIS: error= 1.12D-03 at cycle   4 NSaved=   4.
 NSaved= 4 IEnMin= 4 EnMin= -40.8746025276747     IErMin= 4 ErrMin= 1.12D-03
 ErrMax= 1.12D-03 EMaxC= 1.00D-01 BMatC= 5.70D-05 BMatP= 7.34D-04
 IDIUse=3 WtCom= 9.89D-01 WtEn= 1.12D-02
 Coeff-Com:  0.293D-01-0.470D-01-0.340D+00 0.136D+01
 Coeff-En:   0.000D+00 0.000D+00 0.000D+00 0.100D+01
 Coeff:      0.290D-01-0.464D-01-0.337D+00 0.135D+01
 Gap=     0.433 Goal=   None    Shift=    0.000
 Gap=     0.566 Goal=   None    Shift=    0.000
 RMSDP=1.16D-04 MaxDP=3.81D-03 DE=-5.48D-04 OVMax= 9.37D-03

 Cycle   5  Pass 1  IDiag  1:
 RMSU=  1.58D-05    CP:  9.64D-01  2.34D+00  1.44D+00  1.64D+00
 FoFJK:  IHMeth= 1 ICntrl=     0 DoSepK=T KAlg= 1 I1Cent= 0 FoldK=F
 E= -40.8746650044970     Delta-E=       -0.000062476822 Rises=F Damp=F
 DIIS: error= 2.22D-04 at cycle   5 NSaved=   5.
 NSaved= 5 IEnMin= 5 EnMin= -40.8746650044970     IErMin= 5 ErrMin= 2.22D-04
 ErrMax= 2.22D-04 EMaxC= 1.00D-01 BMatC= 3.85D-06 BMatP= 5.70D-05
 IDIUse=3 WtCom= 9.98D-01 WtEn= 2.22D-03
 Coeff-Com: -0.501D-02 0.199D-01 0.575D-01-0.503D+00 0.143D+01
 Coeff-En:   0.000D+00 0.000D+00 0.000D+00 0.000D+00 0.100D+01
 Coeff:     -0.500D-02 0.199D-01 0.573D-01-0.502D+00 0.143D+01
 Gap=     0.434 Goal=   None    Shift=    0.000
 Gap=     0.566 Goal=   None    Shift=    0.000
 RMSDP=2.46D-05 MaxDP=7.02D-04 DE=-6.25D-05 OVMax= 1.61D-03

 Cycle   6  Pass 1  IDiag  1:
 RMSU=  4.67D-06    CP:  9.64D-01  2.34D+00  1.45D+00  1.82D+00  1.68D+00
 FoFJK:  IHMeth= 1 ICntrl=     0 DoSepK=T KAlg= 1 I1Cent= 0 FoldK=F
 E= -40.8746685802774     Delta-E=       -0.000003575780 Rises=F Damp=F
 DIIS: error= 4.40D-05 at cycle   6 NSaved=   6.
 NSaved= 6 IEnMin= 6 EnMin= -40.8746685802774     IErMin= 6 ErrMin= 4.40D-05
 ErrMax= 4.40D-05 EMaxC= 1.00D-01 BMatC= 2.32D-07 BMatP= 3.85D-06
 IDIUse=1 WtCom= 1.00D+00 WtEn= 0.00D+00
 Coeff-Com: -0.112D-02-0.464D-03 0.576D-02 0.316D-01-0.312D+00 0.128D+01
 Coeff:     -0.112D-02-0.464D-03 0.576D-02 0.316D-01-0.312D+00 0.128D+01
 Gap=     0.434 Goal=   None    Shift=    0.000
 Gap=     0.566 Goal=   None    Shift=    0.000
 RMSDP=4.98D-06 MaxDP=9.86D-05 DE=-3.58D-06 OVMax= 2.30D-04

 Cycle   7  Pass 1  IDiag  1:
 RMSU=  1.64D-06    CP:  9.64D-01  2.34D+00  1.45D+00  1.83D+00  1.81D+00
                    CP:  1.62D+00
 FoFJK:  IHMeth= 1 ICntrl=     0 DoSepK=T KAlg= 1 I1Cent= 0 FoldK=F
 E= -40.8746687845779     Delta-E=       -0.000000204301 Rises=F Damp=F
 DIIS: error= 1.24D-05 at cycle   7 NSaved=   7.
 NSaved= 7 IEnMin= 7 EnMin= -40.8746687845779     IErMin= 7 ErrMin= 1.24D-05
 ErrMax= 1.24D-05 EMaxC= 1.00D-01 BMatC= 2.10D-08 BMatP= 2.32D-07
 IDIUse=1 WtCom= 1.00D+00 WtEn= 0.00D+00
 Coeff-Com:  0.736D-03-0.205D-02-0.617D-02 0.445D-01-0.897D-01-0.239D+00
 Coeff-Com:  0.129D+01
 Coeff:      0.736D-03-0.205D-02-0.617D-02 0.445D-01-0.897D-01-0.239D+00
 Coeff:      0.129D+01
 Gap=     0.434 Goal=   None    Shift=    0.000
 Gap=     0.566 Goal=   None    Shift=    0.000
 RMSDP=1.92D-06 MaxDP=3.81D-05 DE=-2.04D-07 OVMax= 8.97D-05

 Cycle   8  Pass 1  IDiag  1:
 RMSU=  3.22D-07    CP:  9.64D-01  2.34D+00  1.45D+00  1.83D+00  1.83D+00
                    CP:  1.89D+00  1.53D+00
 FoFJK:  IHMeth= 1 ICntrl=     0 DoSepK=T KAlg= 1 I1Cent= 0 FoldK=F
 E= -40.8746688046280     Delta-E=       -0.000000020050 Rises=F Damp=F
 DIIS: error= 2.33D-06 at cycle   8 NSaved=   8.
 NSaved= 8 IEnMin= 8 EnMin= -40.8746688046280     IErMin= 8 ErrMin= 2.33D-06
 ErrMax= 2.33D-06 EMaxC= 1.00D-01 BMatC= 8.18D-10 BMatP= 2.10D-08
 IDIUse=1 WtCom= 1.00D+00 WtEn= 0.00D+00
 Coeff-Com:  0.307D-05 0.275D-03 0.903D-03-0.100D-01 0.349D-01-0.316D-01
 Coeff-Com: -0.231D+00 0.124D+01
 Coeff:      0.307D-05 0.275D-03 0.903D-03-0.100D-01 0.349D-01-0.316D-01
 Coeff:     -0.231D+00 0.124D+01
 Gap=     0.434 Goal=   None    Shift=    0.000
 Gap=     0.566 Goal=   None    Shift=    0.000
 RMSDP=3.66D-07 MaxDP=9.94D-06 DE=-2.01D-08 OVMax= 1.64D-05

 Cycle   9  Pass 1  IDiag  1:
 RMSU=  6.36D-08    CP:  9.64D-01  2.34D+00  1.45D+00  1.83D+00  1.83D+00
                    CP:  1.93D+00  1.65D+00  1.46D+00
 FoFJK:  IHMeth= 1 ICntrl=     0 DoSepK=T KAlg= 1 I1Cent= 0 FoldK=F
 E= -40.8746688052677     Delta-E=       -0.000000000640 Rises=F Damp=F
 DIIS: error= 8.02D-07 at cycle   9 NSaved=   9.
 NSaved= 9 IEnMin= 9 EnMin= -40.8746688052677     IErMin= 9 ErrMin= 8.02D-07
 ErrMax= 8.02D-07 EMaxC= 1.00D-01 BMatC= 4.39D-11 BMatP= 8.18D-10
 IDIUse=1 WtCom= 1.00D+00 WtEn= 0.00D+00
 Coeff-Com: -0.372D-04-0.171D-04-0.153D-03 0.226D-02-0.102D-01 0.215D-01
 Coeff-Com:  0.377D-01-0.429D+00 0.138D+01
 Coeff:     -0.372D-04-0.171D-04-0.153D-03 0.226D-02-0.102D-01 0.215D-01
 Coeff:      0.377D-01-0.429D+00 0.138D+01
 Gap=     0.434 Goal=   None    Shift=    0.000
 Gap=     0.566 Goal=   None    Shift=    0.000
 RMSDP=8.09D-08 MaxDP=1.96D-06 DE=-6.40D-10 OVMax= 5.82D-06

 Cycle  10  Pass 1  IDiag  1:
 RMSU=  2.79D-08    CP:  9.64D-01  2.34D+00  1.45D+00  1.83D+00  1.83D+00
                    CP:  1.93D+00  1.65D+00  1.55D+00  1.61D+00
 FoFJK:  IHMeth= 1 ICntrl=     0 DoSepK=T KAlg= 1 I1Cent= 0 FoldK=F
 E= -40.8746688053173     Delta-E=       -0.000000000050 Rises=F Damp=F
 DIIS: error= 3.77D-07 at cycle  10 NSaved=  10.
 NSaved=10 IEnMin=10 EnMin= -40.8746688053173     IErMin=10 ErrMin= 3.77D-07
 ErrMax= 3.77D-07 EMaxC= 1.00D-01 BMatC= 6.72D-12 BMatP= 4.39D-11
 IDIUse=1 WtCom= 1.00D+00 WtEn= 0.00D+00
 Coeff-Com:  0.279D-04-0.187D-04 0.204D-04-0.532D-03 0.348D-02-0.116D-01
 Coeff-Com: -0.316D-02 0.165D+00-0.889D+00 0.174D+01
 Coeff:      0.279D-04-0.187D-04 0.204D-04-0.532D-03 0.348D-02-0.116D-01
 Coeff:     -0.316D-02 0.165D+00-0.889D+00 0.174D+01
 Gap=     0.434 Goal=   None    Shift=    0.000
 Gap=     0.566 Goal=   None    Shift=    0.000
 RMSDP=4.12D-08 MaxDP=1.09D-06 DE=-4.96D-11 OVMax= 2.73D-06

 Cycle  11  Pass 1  IDiag  1:
 RMSU=  9.11D-09    CP:  9.64D-01  2.34D+00  1.45D+00  1.83D+00  1.83D+00
                    CP:  1.92D+00  1.65D+00  1.55D+00  1.90D+00  1.81D+00
 FoFJK:  IHMeth= 1 ICntrl=     0 DoSepK=T KAlg= 1 I1Cent= 0 FoldK=F
 E= -40.8746688053275     Delta-E=       -0.000000000010 Rises=F Damp=F
 DIIS: error= 9.58D-08 at cycle  11 NSaved=  11.
 NSaved=11 IEnMin=11 EnMin= -40.8746688053275     IErMin=11 ErrMin= 9.58D-08
 ErrMax= 9.58D-08 EMaxC= 1.00D-01 BMatC= 4.59D-13 BMatP= 6.72D-12
 IDIUse=1 WtCom= 1.00D+00 WtEn= 0.00D+00
 Coeff-Com: -0.636D-05 0.104D-04 0.867D-05-0.960D-04 0.773D-04 0.142D-02
 Coeff-Com: -0.466D-02 0.302D-03 0.135D+00-0.553D+00 0.142D+01
 Coeff:     -0.636D-05 0.104D-04 0.867D-05-0.960D-04 0.773D-04 0.142D-02
 Coeff:     -0.466D-02 0.302D-03 0.135D+00-0.553D+00 0.142D+01
 Gap=     0.434 Goal=   None    Shift=    0.000
 Gap=     0.566 Goal=   None    Shift=    0.000
 RMSDP=9.85D-09 MaxDP=3.29D-07 DE=-1.03D-11 OVMax= 6.49D-07

 SCF Done:  E(ULC-B+HF-LYP) =  -40.8746688053     A.U. after   11 cycles
             Convg  =    0.9851D-08             -V/T =  2.0047
 <Sx>= 0.0000 <Sy>= 0.0000 <Sz>= 0.5000 <S**2>= 0.7538 S= 0.5019
 <L.S>= 0.000000000000E+00
 KE= 4.068419826969D+01 PE=-1.215995532478D+02 EE= 2.626913975037D+01
 Annihilation of the first spin contaminant:
 S**2 before annihilation     0.7538,   after     0.7500
 Leave Link  502 at Wed Nov  3 01:46:43 2010, MaxMem=  786432000 cpu:     255.7
 (Enter /share/apps/G09A02/g09/l601.exe)
 Copying SCF densities to generalized density rwf, IOpCl= 1 IROHF=0.

 **********************************************************************

            Population analysis using the SCF density.

 **********************************************************************

 Alpha  occ. eigenvalues --  -10.14728  -0.85568  -0.56519  -0.55959  -0.55959
 Alpha  occ. eigenvalues --   -0.36398
 Alpha virt. eigenvalues --    0.06954   0.09121   0.09121   0.12172   0.17669
 Alpha virt. eigenvalues --    0.23319   0.23319   0.24766   0.37794   0.37794
 Alpha virt. eigenvalues --    0.38306   0.40282   0.40282   0.49732   0.59554
 Alpha virt. eigenvalues --    0.63045   0.63045   0.66885   0.66885   0.68133
 Alpha virt. eigenvalues --    0.75541   0.79750   0.83357   0.83357   0.94693
 Alpha virt. eigenvalues --    1.02656   1.02656   1.09635   1.16187   1.16187
 Alpha virt. eigenvalues --    1.24194   1.24194   1.34694   1.48938   1.48939
 Alpha virt. eigenvalues --    1.51298   1.67619   1.78726   1.78726   2.13691
 Alpha virt. eigenvalues --    2.15496   2.15496   2.49502   2.55067   2.66964
 Alpha virt. eigenvalues --    2.79504   2.79504   2.87468   3.05549   3.13327
 Alpha virt. eigenvalues --    3.13327   3.16468   3.21062   3.21062   3.59587
 Alpha virt. eigenvalues --    3.59587   3.72537   3.72537   3.96372   4.04355
 Alpha virt. eigenvalues --    4.27734   4.27734   4.35893   4.35893   4.40927
 Alpha virt. eigenvalues --    4.40927   4.50722   4.96446   5.35454   5.73658
 Alpha virt. eigenvalues --    5.73658   5.81845   7.15272   7.15273   7.31725
 Alpha virt. eigenvalues --    7.73376   7.73376  24.22819
  Beta  occ. eigenvalues --  -10.13303  -0.80982  -0.55793  -0.54899  -0.54899
  Beta virt. eigenvalues --    0.01693   0.07091   0.08996   0.08996   0.13040
  Beta virt. eigenvalues --    0.19680   0.23567   0.23567   0.25838   0.38936
  Beta virt. eigenvalues --    0.38936   0.39159   0.40278   0.40278   0.51285
  Beta virt. eigenvalues --    0.60593   0.63417   0.63417   0.67575   0.67575
  Beta virt. eigenvalues --    0.69799   0.77293   0.80880   0.83446   0.83446
  Beta virt. eigenvalues --    0.94656   1.03238   1.03238   1.10273   1.16236
  Beta virt. eigenvalues --    1.16236   1.24246   1.24246   1.36156   1.49474
  Beta virt. eigenvalues --    1.49475   1.53205   1.67663   1.83537   1.83537
  Beta virt. eigenvalues --    2.16510   2.16510   2.17131   2.50097   2.55042
  Beta virt. eigenvalues --    2.67612   2.80893   2.80893   2.92769   3.05949
  Beta virt. eigenvalues --    3.16288   3.16288   3.21002   3.24315   3.24315
  Beta virt. eigenvalues --    3.59921   3.59921   3.73427   3.73427   3.96723
  Beta virt. eigenvalues --    4.04701   4.27372   4.27372   4.36666   4.36666
  Beta virt. eigenvalues --    4.41099   4.41099   4.51413   4.96612   5.36391
  Beta virt. eigenvalues --    5.74254   5.74254   5.82110   7.21601   7.21602
  Beta virt. eigenvalues --    7.39762   7.75000   7.75000  24.24691
          Condensed to atoms (all electrons):
              1          2          3          4          5          6
     1  C    5.408637  -0.011406   0.401936   0.401934   0.401934  -0.016862
     2  H   -0.011406   0.577746  -0.000818  -0.000818  -0.000818   0.426716
     3  H    0.401936  -0.000818   0.440865  -0.019905  -0.019905  -0.000264
     4  H    0.401934  -0.000818  -0.019905   0.440865  -0.019903  -0.000264
     5  H    0.401934  -0.000818  -0.019905  -0.019903   0.440865  -0.000264
     6  H   -0.016862   0.426716  -0.000264  -0.000264  -0.000264   0.608435
 Mulliken atomic charges:
              1
     1  C   -0.586172
     2  H    0.009397
     3  H    0.198091
     4  H    0.198091
     5  H    0.198091
     6  H   -0.017498
 Sum of Mulliken atomic charges =   0.00000
 Mulliken charges with hydrogens summed into heavy atoms:
              1
     1  C    0.000000
 Sum of Mulliken charges with hydrogens summed into heavy atoms =   0.00000
          Atomic-Atomic Spin Densities.
              1          2          3          4          5          6
     1  C    1.068813  -0.007445   0.004533   0.004534   0.004534  -0.015325
     2  H   -0.007445  -0.021698   0.000001   0.000001   0.000001   0.006219
     3  H    0.004533   0.000001  -0.033987   0.002832   0.002832  -0.000101
     4  H    0.004534   0.000001   0.002832  -0.033988   0.002831  -0.000101
     5  H    0.004534   0.000001   0.002832   0.002831  -0.033988  -0.000101
     6  H   -0.015325   0.006219  -0.000101  -0.000101  -0.000101   0.044364
 Mulliken atomic spin densities:
              1
     1  C    1.059643
     2  H   -0.022921
     3  H   -0.023892
     4  H   -0.023892
     5  H   -0.023892
     6  H    0.034954
 Sum of Mulliken atomic spin densities =   1.00000
 Electronic spatial extent (au):  <R**2>=             91.4737
 Charge=              0.0000 electrons
 Dipole moment (field-independent basis, Debye):
    X=              0.0000    Y=              0.0000    Z=             -0.1155  Tot=              0.1155
 Quadrupole moment (field-independent basis, Debye-Ang):
   XX=             -9.4341   YY=             -9.4341   ZZ=            -11.2171
   XY=              0.0000   XZ=              0.0000   YZ=              0.0000
 Traceless Quadrupole moment (field-independent basis, Debye-Ang):
   XX=              0.5944   YY=              0.5943   ZZ=             -1.1887
   XY=              0.0000   XZ=              0.0000   YZ=              0.0000
 Octapole moment (field-independent basis, Debye-Ang**2):
  XXX=              0.9866  YYY=              0.0000  ZZZ=            -15.0293  XYY=             -0.9866
  XXY=              0.0000  XXZ=             -6.0575  XZZ=              0.0000  YZZ=              0.0000
  YYZ=             -6.0575  XYZ=              0.0000
 Hexadecapole moment (field-independent basis, Debye-Ang**3):
 XXXX=            -17.5201 YYYY=            -17.5201 ZZZZ=            -96.6624 XXXY=              0.0000
 XXXZ=             -0.0170 YYYX=              0.0000 YYYZ=              0.0000 ZZZX=              0.0000
 ZZZY=              0.0000 XXYY=             -5.8400 XXZZ=            -22.9741 YYZZ=            -22.9741
 XXYZ=              0.0000 YYXZ=              0.0170 ZZXY=              0.0000
 N-N= 1.377154642239D+01 E-N=-1.792593289695D+02  KE= 6.041229449635D+01
                          Isotropic Fermi Contact Couplings
        Atom                 a.u.       MegaHertz       Gauss      10(-4) cm-1
     1  C(13)              0.02955      33.22416      11.85521      11.08239
     2  H(1)              -0.00310     -13.87647      -4.95147      -4.62869
     3  H(1)              -0.01320     -58.98580     -21.04760     -19.67554
     4  H(1)              -0.01320     -58.98624     -21.04776     -19.67569
     5  H(1)              -0.01320     -58.98624     -21.04776     -19.67569
     6  H(1)               0.01300      58.11168      20.73569      19.38397
 --------------------------------------------------------
       Center         ----  Spin Dipole Couplings  ----
                      3XX-RR        3YY-RR        3ZZ-RR
 --------------------------------------------------------
     1   Atom       -0.594446     -0.594447      1.188893
     2   Atom       -0.020102     -0.020102      0.040204
     3   Atom        0.074694     -0.075278      0.000584
     4   Atom       -0.037785      0.037201      0.000584
     5   Atom       -0.037785      0.037201      0.000584
     6   Atom       -0.004628     -0.004628      0.009257
 --------------------------------------------------------
                        XY            XZ            YZ
 --------------------------------------------------------
     1   Atom        0.000000      0.000000      0.000000
     2   Atom        0.000000      0.000000      0.000000
     3   Atom        0.000000     -0.001190      0.000000
     4   Atom        0.064940      0.000595      0.001031
     5   Atom       -0.064940      0.000595     -0.001031
     6   Atom        0.000000      0.000000      0.000000
 --------------------------------------------------------


 ---------------------------------------------------------------------------------
              Anisotropic Spin Dipole Couplings in Principal Axis System
 ---------------------------------------------------------------------------------

       Atom             a.u.   MegaHertz   Gauss  10(-4) cm-1        Axes

              Baa    -0.5944   -79.769   -28.464   -26.608  0.0000  1.0000  0.0000
     1 C(13)  Bbb    -0.5944   -79.769   -28.464   -26.608  1.0000  0.0000  0.0000
              Bcc     1.1889   159.538    56.927    53.216  0.0000  0.0000  1.0000
 
              Baa    -0.0201   -10.726    -3.827    -3.578  1.0000  0.0000  0.0000
     2 H(1)   Bbb    -0.0201   -10.726    -3.827    -3.578  0.0000  1.0000  0.0000
              Bcc     0.0402    21.451     7.654     7.155  0.0000  0.0000  1.0000
 
              Baa    -0.0753   -40.165   -14.332   -13.398  0.0000  1.0000  0.0000
     3 H(1)   Bbb     0.0006     0.301     0.107     0.100  0.0161  0.0000  0.9999
              Bcc     0.0747    39.863    14.224    13.297  0.9999  0.0000 -0.0161
 
              Baa    -0.0753   -40.165   -14.332   -13.398  0.8660 -0.5000  0.0000
     4 H(1)   Bbb     0.0006     0.301     0.107     0.100 -0.0080 -0.0139  0.9999
              Bcc     0.0747    39.864    14.224    13.297  0.4999  0.8659  0.0161
 
              Baa    -0.0753   -40.165   -14.332   -13.398  0.8660  0.5000  0.0000
     5 H(1)   Bbb     0.0006     0.301     0.107     0.100 -0.0080  0.0139  0.9999
              Bcc     0.0747    39.864    14.224    13.297 -0.4999  0.8659 -0.0161
 
              Baa    -0.0046    -2.469    -0.881    -0.824  1.0000  0.0000  0.0000
     6 H(1)   Bbb    -0.0046    -2.469    -0.881    -0.824  0.0000  1.0000  0.0000
              Bcc     0.0093     4.939     1.762     1.647  0.0000  0.0000  1.0000
 

 ---------------------------------------------------------------------------------

 No NMR shielding tensors so no spin-rotation constants.
 Leave Link  601 at Wed Nov  3 01:46:44 2010, MaxMem=  786432000 cpu:       4.2
 (Enter /share/apps/G09A02/g09/l9999.exe)
 1\1\GINC-COMPUTE-0-7\SP\ULC-BLYP\6-311+G(3df,2p)\C1H5(2)\WENXINZY\03-N
 ov-2010\0\\#p lc-blyp/6-311+g(3df,2p) nosymm scf=tight\\19 H2+CH3\\0,2
 \C\H,1,2.4179696\H,1,1.0792907,2,90.5593518\H,1,1.0792907,2,90.5593518
 ,3,120.,0\H,1,1.0792907,2,90.5593518,3,-120.,0\H,2,0.7459675,1,180.,3,
 0.,0\\Version=EM64L-G09RevA.02\HF=-40.8746688\S2=0.753837\S2-1=0.\S2A=
 0.750009\RMSD=9.851e-09\Dipole=0.0000002,0.,-0.0454337\Quadrupole=0.44
 18848,0.4418828,-0.8837676,0.,-0.0000002,0.\PG=C03V [C3(H1H1C1),3SGV(H
 1)]\\@


 The cat could very well be man's best friend
 but would never stoop to admitting it.
                               -- Doug Larson
 Job cpu time:  0 days  0 hours  4 minutes 30.2 seconds.
 File lengths (MBytes):  RWF=      9 Int=      0 D2E=      0 Chk=      1 Scr=      1
 Normal termination of Gaussian 09 at Wed Nov  3 01:46:44 2010.
