 Entering Gaussian System, Link 0=/share/apps/G09A02/g09/g09
 Input=./.script12553/Job_H2_CH3_1.com
 Output=./.script12553/Job_H2_CH3_1.log
 Initial command:
 /share/apps/G09A02/g09/l1.exe /state/partition1/wenxinzy/scratch/Gau-17656.inp -scrdir=/state/partition1/wenxinzy/scratch/
 Default is to use a total of   8 processors:
                                8 via shared-memory
                                1 via Linda
 Entering Link 1 = /share/apps/G09A02/g09/l1.exe PID=     17657.
  
 Copyright (c) 1988,1990,1992,1993,1995,1998,2003,2009, Gaussian, Inc.
                  All Rights Reserved.
  
 This is part of the Gaussian(R) 09 program.  It is based on
 the Gaussian(R) 03 system (copyright 2003, Gaussian, Inc.),
 the Gaussian(R) 98 system (copyright 1998, Gaussian, Inc.),
 the Gaussian(R) 94 system (copyright 1995, Gaussian, Inc.),
 the Gaussian 92(TM) system (copyright 1992, Gaussian, Inc.),
 the Gaussian 90(TM) system (copyright 1990, Gaussian, Inc.),
 the Gaussian 88(TM) system (copyright 1988, Gaussian, Inc.),
 the Gaussian 86(TM) system (copyright 1986, Carnegie Mellon
 University), and the Gaussian 82(TM) system (copyright 1983,
 Carnegie Mellon University). Gaussian is a federally registered
 trademark of Gaussian, Inc.
  
 This software contains proprietary and confidential information,
 including trade secrets, belonging to Gaussian, Inc.
  
 This software is provided under written license and may be
 used, copied, transmitted, or stored only in accord with that
 written license.
  
 The following legend is applicable only to US Government
 contracts under FAR:
  
                    RESTRICTED RIGHTS LEGEND
  
 Use, reproduction and disclosure by the US Government is
 subject to restrictions as set forth in subparagraphs (a)
 and (c) of the Commercial Computer Software - Restricted
 Rights clause in FAR 52.227-19.
  
 Gaussian, Inc.
 340 Quinnipiac St., Bldg. 40, Wallingford CT 06492
  
  
 ---------------------------------------------------------------
 Warning -- This program may not be used in any manner that
 competes with the business of Gaussian, Inc. or will provide
 assistance to any competitor of Gaussian, Inc.  The licensee
 of this program is prohibited from giving any competitor of
 Gaussian, Inc. access to this program.  By using this program,
 the user acknowledges that Gaussian, Inc. is engaged in the
 business of creating and licensing software in the field of
 computational chemistry and represents and warrants to the
 licensee that it is not a competitor of Gaussian, Inc. and that
 it will not use this program in any manner prohibited above.
 ---------------------------------------------------------------
  

 Cite this work as:
 Gaussian 09, Revision A.02,
 M. J. Frisch, G. W. Trucks, H. B. Schlegel, G. E. Scuseria, 
 M. A. Robb, J. R. Cheeseman, G. Scalmani, V. Barone, B. Mennucci, 
 G. A. Petersson, H. Nakatsuji, M. Caricato, X. Li, H. P. Hratchian, 
 A. F. Izmaylov, J. Bloino, G. Zheng, J. L. Sonnenberg, M. Hada, 
 M. Ehara, K. Toyota, R. Fukuda, J. Hasegawa, M. Ishida, T. Nakajima, 
 Y. Honda, O. Kitao, H. Nakai, T. Vreven, J. A. Montgomery, Jr., 
 J. E. Peralta, F. Ogliaro, M. Bearpark, J. J. Heyd, E. Brothers, 
 K. N. Kudin, V. N. Staroverov, R. Kobayashi, J. Normand, 
 K. Raghavachari, A. Rendell, J. C. Burant, S. S. Iyengar, J. Tomasi, 
 M. Cossi, N. Rega, J. M. Millam, M. Klene, J. E. Knox, J. B. Cross, 
 V. Bakken, C. Adamo, J. Jaramillo, R. Gomperts, R. E. Stratmann, 
 O. Yazyev, A. J. Austin, R. Cammi, C. Pomelli, J. W. Ochterski, 
 R. L. Martin, K. Morokuma, V. G. Zakrzewski, G. A. Voth, 
 P. Salvador, J. J. Dannenberg, S. Dapprich, A. D. Daniels, 
 O. Farkas, J. B. Foresman, J. V. Ortiz, J. Cioslowski, 
 and D. J. Fox, Gaussian, Inc., Wallingford CT, 2009.
 
 ******************************************
 Gaussian 09:  EM64L-G09RevA.02 11-Jun-2009
                 3-Nov-2010 
 ******************************************
 %chk=/state/partition1/wenxinzy/scratch/H2_CH3_1.chk
 %nproc=8
 Will use up to    8 processors via shared memory.
 %mem=6000mb
 -------------------------------------------
 #p lc-blyp/6-311+g(3df,2p) nosymm scf=tight
 -------------------------------------------
 1/38=1/1;
 2/12=2,15=1,17=6,18=5,40=1/2;
 3/5=4,6=6,7=216,11=2,16=1,25=1,30=1,74=1000402/1,2,3;
 4//1;
 5/5=2,32=2,38=5/2;
 6/7=2,8=2,9=2,10=2,28=1/1;
 99/5=1,9=1/99;
 Leave Link    1 at Wed Nov  3 01:35:30 2010, MaxMem=  786432000 cpu:       0.3
 (Enter /share/apps/G09A02/g09/l101.exe)
 --------
 2 H2+CH3
 --------
 Symbolic Z-matrix:
 Charge =  0 Multiplicity = 2
 C
 H1                   C    R1
 H2                   C    R2       H1   A1
 H3                   C    R2       H1   A1       H2    120.     0
 H4                   C    R2       H1   A1       H2   -120.     0
 H5                   H1   R3       C     180.     H2    0.       0
       Variables:
  R1                    1.40733                  
  R2                    1.08476                  
  A1                  102.95487                  
  R3                    0.89029                  
 
 NAtoms=      6 NQM=      6 NQMF=      0 NMic=      0 NMicF=      0 NTot=      6.
                    Isotopes and Nuclear Properties:
 (Nuclear quadrupole moments (NQMom) in fm**2, nuclear magnetic moments (NMagM)
  in nuclear magnetons)

  Atom         1           2           3           4           5           6
 IAtWgt=          12           1           1           1           1           1
 AtmWgt=  12.0000000   1.0078250   1.0078250   1.0078250   1.0078250   1.0078250
 NucSpn=           0           1           1           1           1           1
 AtZEff=   0.0000000   0.0000000   0.0000000   0.0000000   0.0000000   0.0000000
 NQMom=    0.0000000   0.0000000   0.0000000   0.0000000   0.0000000   0.0000000
 NMagM=    0.0000000   2.7928460   2.7928460   2.7928460   2.7928460   2.7928460
 Leave Link  101 at Wed Nov  3 01:35:30 2010, MaxMem=  786432000 cpu:       1.2
 (Enter /share/apps/G09A02/g09/l202.exe)
                          Input orientation:                          
 ---------------------------------------------------------------------
 Center     Atomic      Atomic             Coordinates (Angstroms)
 Number     Number       Type             X           Y           Z
 ---------------------------------------------------------------------
      1          6           0        0.000000    0.000000    0.000000
      2          1           0        0.000000    0.000000    1.407334
      3          1           0        1.057146    0.000000   -0.243184
      4          1           0       -0.528573   -0.915515   -0.243184
      5          1           0       -0.528573    0.915515   -0.243184
      6          1           0        0.000000    0.000000    2.297627
 ---------------------------------------------------------------------
                    Distance matrix (angstroms):
                    1          2          3          4          5
     1  C    0.000000
     2  H    1.407334   0.000000
     3  H    1.084756   1.960042   0.000000
     4  H    1.084756   1.960042   1.831030   0.000000
     5  H    1.084756   1.960042   1.831030   1.831030   0.000000
     6  H    2.297627   0.890293   2.751959   2.751959   2.751959
                    6
     6  H    0.000000
 Symmetry turned off by external request.
 Stoichiometry    CH5(2)
 Framework group  C3V[C3(HHC),3SGV(H)]
 Deg. of freedom     4
 Full point group                 C3V     NOp   6
 Rotational constants (GHZ):    149.5688789     58.3780334     58.3780334
 Leave Link  202 at Wed Nov  3 01:35:30 2010, MaxMem=  786432000 cpu:       0.0
 (Enter /share/apps/G09A02/g09/l301.exe)
 Standard basis: 6-311+G(3df,2p) (5D, 7F)
 Ernie: Thresh=  0.10000D-02 Tol=  0.10000D-05 Strict=F.
 Integral buffers will be    131072 words long.
 Raffenetti 2 integral format.
 Two-electron integral symmetry is turned off.
    84 basis functions,   113 primitive gaussians,    90 cartesian basis functions
     6 alpha electrons        5 beta electrons
       nuclear repulsion energy        15.2671464471 Hartrees.
 IExCor=10402 DFT=T Ex=LC-B+HF Corr=LYP ExCW=0 ScaHFX=  1.000000
 ScaDFX=  1.000000  1.000000  1.000000  1.000000 ScalE2=  1.000000  1.000000
 IRadAn=      0 IRanWt=     -1 IRanGd=            0 ICorTp=0
  HFx wShort=  0.000000 wLong=  0.470000 cFull=  0.000000 cShort=  0.000000 cLong=  1.000000
  DFx wShort=  0.000000 wLong=  0.470000 cFull=  0.000000 cShort=  0.000000 cLong=  1.000000
 NAtoms=    6 NActive=    6 NUniq=    6 SFac= 7.50D-01 NAtFMM=   80 NAOKFM=F Big=F
 Leave Link  301 at Wed Nov  3 01:35:30 2010, MaxMem=  786432000 cpu:       0.7
 (Enter /share/apps/G09A02/g09/l302.exe)
 NPDir=0 NMtPBC=     1 NCelOv=     1 NCel=       1 NClECP=     1 NCelD=      1
         NCelK=      1 NCelE2=     1 NClLst=     1 CellRange=     0.0.
 One-electron integrals computed using PRISM.
 NBasis=    84 RedAO= T  NBF=    84
 NBsUse=    84 1.00D-06 NBFU=    84
 Precomputing XC quadrature grid using
 IXCGrd= 2 IRadAn=           0 IRanWt=          -1 IRanGd=           0 AccXCQ= 1.00D-10.
 NRdTot=     383 NPtTot=       48740 NUsed=       51512 NTot=       51544
 NSgBfM=    90    90    90    90    90 NAtAll=     6     6.
 Leave Link  302 at Wed Nov  3 01:35:31 2010, MaxMem=  786432000 cpu:       2.5
 (Enter /share/apps/G09A02/g09/l303.exe)
 DipDrv:  MaxL=1.
 Leave Link  303 at Wed Nov  3 01:35:31 2010, MaxMem=  786432000 cpu:       0.9
 (Enter /share/apps/G09A02/g09/l401.exe)
 Harris functional with IExCor=10402 diagonalized for initial guess.
 ExpMin= 4.38D-02 ExpMax= 4.56D+03 ExpMxC= 6.82D+02 IAcc=2 IRadAn=         0 AccDes= 0.00D+00
 HarFok:  IExCor=10402 AccDes= 0.00D+00 IRadAn=         0 IDoV= 1
 ScaDFX=  1.000000  1.000000  1.000000  1.000000
 FoFCou: FMM=F IPFlag=           0 FMFlag=      100000 FMFlg1=           0
         NFxFlg=           0 DoJE=T BraDBF=F KetDBF=T FulRan=T
         Omega=  0.000000  0.000000  1.000000  0.000000  0.000000 ICntrl=     500 IOpCl=  0
         NMat0=    1 NMatS0=    1 NMatT0=    0 NMatD0=    1 NMtDS0=    0 NMtDT0=    0
         I1Cent=           4 NGrid=           0.
 Symmetry not used in FoFCou.
 Harris En= -38.5322425552732    
 Initial guess <Sx>= 0.0000 <Sy>= 0.0000 <Sz>= 0.5000 <S**2>= 0.7500 S= 0.5000
 Leave Link  401 at Wed Nov  3 01:35:32 2010, MaxMem=  786432000 cpu:       3.7
 (Enter /share/apps/G09A02/g09/l502.exe)
 UHF open shell SCF:
 Requested convergence on RMS density matrix=1.00D-08 within 128 cycles.
 Requested convergence on MAX density matrix=1.00D-06.
 Requested convergence on             energy=1.00D-06.
 No special actions if energy rises.
 Using DIIS extrapolation, IDIIS=  1040.
 Two-electron integral symmetry not used.
        51445 words used for storage of precomputed grid.
 IEnd=       95163 IEndB=       95163 NGot=   786432000 MDV=   786361668
 LenX=   786361668 LenY=   786353127
 Fock matrices will be formed incrementally for  20 cycles.

 Cycle   1  Pass 1  IDiag  1:
 FoFJK:  IHMeth= 1 ICntrl=     0 DoSepK=T KAlg= 1 I1Cent= 0 FoldK=F
 FoFCou: FMM=F IPFlag=           0 FMFlag=      100000 FMFlg1=           0
         NFxFlg=           0 DoJE=T BraDBF=F KetDBF=F FulRan=T
         Omega=  0.000000  0.000000  1.000000  0.000000  0.000000 ICntrl=     500 IOpCl=  0
         NMat0=    1 NMatS0=    1 NMatT0=    0 NMatD0=    1 NMtDS0=    0 NMtDT0=    0
         I1Cent=           0 NGrid=           0.
 Symmetry not used in FoFCou.
 E= -40.8202745511379    
 DIIS: error= 2.60D-02 at cycle   1 NSaved=   1.
 NSaved= 1 IEnMin= 1 EnMin= -40.8202745511379     IErMin= 1 ErrMin= 2.60D-02
 ErrMax= 2.60D-02 EMaxC= 1.00D-01 BMatC= 1.27D-01 BMatP= 1.27D-01
 IDIUse=3 WtCom= 7.40D-01 WtEn= 2.60D-01
 Coeff-Com:  0.100D+01
 Coeff-En:   0.100D+01
 Coeff:      0.100D+01
 Gap=     0.369 Goal=   None    Shift=    0.000
 Gap=     0.542 Goal=   None    Shift=    0.000
 GapD=    0.369 DampG=1.000 DampE=0.500 DampFc=0.5000 IDamp=-1.
 Damping current iteration by 5.00D-01
 RMSDP=4.06D-03 MaxDP=1.36D-01              OVMax= 1.18D-01

 Cycle   2  Pass 1  IDiag  1:
 RMSU=  1.59D-03    CP:  9.22D-01
 FoFJK:  IHMeth= 1 ICntrl=     0 DoSepK=T KAlg= 1 I1Cent= 0 FoldK=F
 E= -40.8398322763798     Delta-E=       -0.019557725242 Rises=F Damp=T
 DIIS: error= 8.02D-03 at cycle   2 NSaved=   2.
 NSaved= 2 IEnMin= 2 EnMin= -40.8398322763798     IErMin= 2 ErrMin= 8.02D-03
 ErrMax= 8.02D-03 EMaxC= 1.00D-01 BMatC= 1.21D-02 BMatP= 1.27D-01
 IDIUse=3 WtCom= 9.20D-01 WtEn= 8.02D-02
 Coeff-Com: -0.226D+00 0.123D+01
 Coeff-En:   0.000D+00 0.100D+01
 Coeff:     -0.207D+00 0.121D+01
 Gap=     0.402 Goal=   None    Shift=    0.000
 Gap=     0.549 Goal=   None    Shift=    0.000
 RMSDP=3.30D-03 MaxDP=1.14D-01 DE=-1.96D-02 OVMax= 5.43D-02

 Cycle   3  Pass 1  IDiag  1:
 RMSU=  1.40D-03    CP:  7.99D-01  2.37D+00
 FoFJK:  IHMeth= 1 ICntrl=     0 DoSepK=T KAlg= 1 I1Cent= 0 FoldK=F
 E= -40.8597221977031     Delta-E=       -0.019889921323 Rises=F Damp=F
 DIIS: error= 2.95D-03 at cycle   3 NSaved=   3.
 NSaved= 3 IEnMin= 3 EnMin= -40.8597221977031     IErMin= 3 ErrMin= 2.95D-03
 ErrMax= 2.95D-03 EMaxC= 1.00D-01 BMatC= 1.18D-03 BMatP= 1.21D-02
 IDIUse=3 WtCom= 9.70D-01 WtEn= 2.95D-02
 Coeff-Com:  0.302D-02-0.229D+00 0.123D+01
 Coeff-En:   0.000D+00 0.000D+00 0.100D+01
 Coeff:      0.293D-02-0.222D+00 0.122D+01
 Gap=     0.401 Goal=   None    Shift=    0.000
 Gap=     0.538 Goal=   None    Shift=    0.000
 RMSDP=1.08D-03 MaxDP=3.37D-02 DE=-1.99D-02 OVMax= 2.80D-02

 Cycle   4  Pass 1  IDiag  1:
 RMSU=  3.36D-04    CP:  7.60D-01  2.73D+00  1.38D+00
 FoFJK:  IHMeth= 1 ICntrl=     0 DoSepK=T KAlg= 1 I1Cent= 0 FoldK=F
 E= -40.8607110705183     Delta-E=       -0.000988872815 Rises=F Damp=F
 DIIS: error= 1.01D-03 at cycle   4 NSaved=   4.
 NSaved= 4 IEnMin= 4 EnMin= -40.8607110705183     IErMin= 4 ErrMin= 1.01D-03
 ErrMax= 1.01D-03 EMaxC= 1.00D-01 BMatC= 1.24D-04 BMatP= 1.18D-03
 IDIUse=3 WtCom= 9.90D-01 WtEn= 1.01D-02
 Coeff-Com:  0.617D-02-0.379D-01-0.248D+00 0.128D+01
 Coeff-En:   0.000D+00 0.000D+00 0.000D+00 0.100D+01
 Coeff:      0.611D-02-0.375D-01-0.245D+00 0.128D+01
 Gap=     0.405 Goal=   None    Shift=    0.000
 Gap=     0.541 Goal=   None    Shift=    0.000
 RMSDP=3.42D-04 MaxDP=1.05D-02 DE=-9.89D-04 OVMax= 1.11D-02

 Cycle   5  Pass 1  IDiag  1:
 RMSU=  3.86D-05    CP:  7.48D-01  2.83D+00  1.50D+00  1.43D+00
 FoFJK:  IHMeth= 1 ICntrl=     0 DoSepK=T KAlg= 1 I1Cent= 0 FoldK=F
 E= -40.8608282113089     Delta-E=       -0.000117140791 Rises=F Damp=F
 DIIS: error= 3.24D-04 at cycle   5 NSaved=   5.
 NSaved= 5 IEnMin= 5 EnMin= -40.8608282113089     IErMin= 5 ErrMin= 3.24D-04
 ErrMax= 3.24D-04 EMaxC= 1.00D-01 BMatC= 8.67D-06 BMatP= 1.24D-04
 IDIUse=3 WtCom= 9.97D-01 WtEn= 3.24D-03
 Coeff-Com: -0.128D-02 0.205D-01-0.323D-01-0.205D+00 0.122D+01
 Coeff-En:   0.000D+00 0.000D+00 0.000D+00 0.000D+00 0.100D+01
 Coeff:     -0.127D-02 0.205D-01-0.322D-01-0.205D+00 0.122D+01
 Gap=     0.404 Goal=   None    Shift=    0.000
 Gap=     0.541 Goal=   None    Shift=    0.000
 RMSDP=3.77D-05 MaxDP=7.78D-04 DE=-1.17D-04 OVMax= 2.26D-03

 Cycle   6  Pass 1  IDiag  1:
 RMSU=  1.41D-05    CP:  7.47D-01  2.83D+00  1.51D+00  1.47D+00  1.54D+00
 FoFJK:  IHMeth= 1 ICntrl=     0 DoSepK=T KAlg= 1 I1Cent= 0 FoldK=F
 E= -40.8608360796013     Delta-E=       -0.000007868292 Rises=F Damp=F
 DIIS: error= 1.00D-04 at cycle   6 NSaved=   6.
 NSaved= 6 IEnMin= 6 EnMin= -40.8608360796013     IErMin= 6 ErrMin= 1.00D-04
 ErrMax= 1.00D-04 EMaxC= 1.00D-01 BMatC= 1.02D-06 BMatP= 8.67D-06
 IDIUse=3 WtCom= 9.99D-01 WtEn= 1.00D-03
 Coeff-Com: -0.338D-03 0.192D-02 0.258D-01-0.996D-01-0.152D+00 0.122D+01
 Coeff-En:   0.000D+00 0.000D+00 0.000D+00 0.000D+00 0.000D+00 0.100D+01
 Coeff:     -0.338D-03 0.192D-02 0.257D-01-0.995D-01-0.152D+00 0.122D+01
 Gap=     0.405 Goal=   None    Shift=    0.000
 Gap=     0.541 Goal=   None    Shift=    0.000
 RMSDP=1.40D-05 MaxDP=3.01D-04 DE=-7.87D-06 OVMax= 7.41D-04

 Cycle   7  Pass 1  IDiag  1:
 RMSU=  4.42D-06    CP:  7.47D-01  2.83D+00  1.51D+00  1.47D+00  1.75D+00
                    CP:  1.43D+00
 FoFJK:  IHMeth= 1 ICntrl=     0 DoSepK=T KAlg= 1 I1Cent= 0 FoldK=F
 E= -40.8608370788300     Delta-E=       -0.000000999229 Rises=F Damp=F
 DIIS: error= 3.14D-05 at cycle   7 NSaved=   7.
 NSaved= 7 IEnMin= 7 EnMin= -40.8608370788300     IErMin= 7 ErrMin= 3.14D-05
 ErrMax= 3.14D-05 EMaxC= 1.00D-01 BMatC= 1.08D-07 BMatP= 1.02D-06
 IDIUse=1 WtCom= 1.00D+00 WtEn= 0.00D+00
 Coeff-Com:  0.153D-04-0.204D-02-0.795D-02 0.566D-01-0.336D-01-0.546D+00
 Coeff-Com:  0.153D+01
 Coeff:      0.153D-04-0.204D-02-0.795D-02 0.566D-01-0.336D-01-0.546D+00
 Coeff:      0.153D+01
 Gap=     0.405 Goal=   None    Shift=    0.000
 Gap=     0.541 Goal=   None    Shift=    0.000
 RMSDP=5.43D-06 MaxDP=1.02D-04 DE=-9.99D-07 OVMax= 2.52D-04

 Cycle   8  Pass 1  IDiag  1:
 RMSU=  8.96D-07    CP:  7.47D-01  2.83D+00  1.51D+00  1.47D+00  1.80D+00
                    CP:  1.59D+00  1.76D+00
 FoFJK:  IHMeth= 1 ICntrl=     0 DoSepK=T KAlg= 1 I1Cent= 0 FoldK=F
 E= -40.8608371994246     Delta-E=       -0.000000120595 Rises=F Damp=F
 DIIS: error= 8.38D-06 at cycle   8 NSaved=   8.
 NSaved= 8 IEnMin= 8 EnMin= -40.8608371994246     IErMin= 8 ErrMin= 8.38D-06
 ErrMax= 8.38D-06 EMaxC= 1.00D-01 BMatC= 5.92D-09 BMatP= 1.08D-07
 IDIUse=1 WtCom= 1.00D+00 WtEn= 0.00D+00
 Coeff-Com:  0.113D-03 0.376D-03 0.142D-02-0.129D-01 0.188D-01 0.118D+00
 Coeff-Com: -0.547D+00 0.142D+01
 Coeff:      0.113D-03 0.376D-03 0.142D-02-0.129D-01 0.188D-01 0.118D+00
 Coeff:     -0.547D+00 0.142D+01
 Gap=     0.405 Goal=   None    Shift=    0.000
 Gap=     0.541 Goal=   None    Shift=    0.000
 RMSDP=1.32D-06 MaxDP=3.79D-05 DE=-1.21D-07 OVMax= 7.53D-05

 Cycle   9  Pass 1  IDiag  1:
 RMSU=  3.49D-07    CP:  7.47D-01  2.83D+00  1.51D+00  1.47D+00  1.80D+00
                    CP:  1.61D+00  1.90D+00  1.54D+00
 FoFJK:  IHMeth= 1 ICntrl=     0 DoSepK=T KAlg= 1 I1Cent= 0 FoldK=F
 E= -40.8608372059574     Delta-E=       -0.000000006533 Rises=F Damp=F
 DIIS: error= 2.35D-06 at cycle   9 NSaved=   9.
 NSaved= 9 IEnMin= 9 EnMin= -40.8608372059574     IErMin= 9 ErrMin= 2.35D-06
 ErrMax= 2.35D-06 EMaxC= 1.00D-01 BMatC= 4.42D-10 BMatP= 5.92D-09
 IDIUse=1 WtCom= 1.00D+00 WtEn= 0.00D+00
 Coeff-Com: -0.517D-04-0.746D-04-0.592D-03 0.410D-02-0.655D-02-0.337D-01
 Coeff-Com:  0.186D+00-0.690D+00 0.154D+01
 Coeff:     -0.517D-04-0.746D-04-0.592D-03 0.410D-02-0.655D-02-0.337D-01
 Coeff:      0.186D+00-0.690D+00 0.154D+01
 Gap=     0.405 Goal=   None    Shift=    0.000
 Gap=     0.541 Goal=   None    Shift=    0.000
 RMSDP=4.44D-07 MaxDP=1.35D-05 DE=-6.53D-09 OVMax= 2.87D-05

 Cycle  10  Pass 1  IDiag  1:
 RMSU=  1.07D-07    CP:  7.47D-01  2.83D+00  1.51D+00  1.47D+00  1.80D+00
                    CP:  1.61D+00  1.92D+00  1.64D+00  1.55D+00
 FoFJK:  IHMeth= 1 ICntrl=     0 DoSepK=T KAlg= 1 I1Cent= 0 FoldK=F
 E= -40.8608372065838     Delta-E=       -0.000000000626 Rises=F Damp=F
 DIIS: error= 7.78D-07 at cycle  10 NSaved=  10.
 NSaved=10 IEnMin=10 EnMin= -40.8608372065838     IErMin=10 ErrMin= 7.78D-07
 ErrMax= 7.78D-07 EMaxC= 1.00D-01 BMatC= 3.79D-11 BMatP= 4.42D-10
 IDIUse=1 WtCom= 1.00D+00 WtEn= 0.00D+00
 Coeff-Com:  0.123D-04 0.850D-05 0.146D-03-0.687D-03 0.115D-02 0.378D-02
 Coeff-Com: -0.253D-01 0.127D+00-0.529D+00 0.142D+01
 Coeff:      0.123D-04 0.850D-05 0.146D-03-0.687D-03 0.115D-02 0.378D-02
 Coeff:     -0.253D-01 0.127D+00-0.529D+00 0.142D+01
 Gap=     0.405 Goal=   None    Shift=    0.000
 Gap=     0.541 Goal=   None    Shift=    0.000
 RMSDP=1.35D-07 MaxDP=4.13D-06 DE=-6.26D-10 OVMax= 8.40D-06

 Cycle  11  Pass 1  IDiag  1:
 RMSU=  2.82D-08    CP:  7.47D-01  2.83D+00  1.51D+00  1.47D+00  1.80D+00
                    CP:  1.61D+00  1.93D+00  1.64D+00  1.68D+00  1.61D+00
 FoFJK:  IHMeth= 1 ICntrl=     0 DoSepK=T KAlg= 1 I1Cent= 0 FoldK=F
 E= -40.8608372066493     Delta-E=       -0.000000000065 Rises=F Damp=F
 DIIS: error= 2.73D-07 at cycle  11 NSaved=  11.
 NSaved=11 IEnMin=11 EnMin= -40.8608372066493     IErMin=11 ErrMin= 2.73D-07
 ErrMax= 2.73D-07 EMaxC= 1.00D-01 BMatC= 3.51D-12 BMatP= 3.79D-11
 IDIUse=1 WtCom= 1.00D+00 WtEn= 0.00D+00
 Coeff-Com:  0.152D-07 0.106D-05-0.338D-04 0.283D-04 0.859D-04 0.744D-03
 Coeff-Com: -0.606D-02 0.202D-01 0.213D-01-0.453D+00 0.142D+01
 Coeff:      0.152D-07 0.106D-05-0.338D-04 0.283D-04 0.859D-04 0.744D-03
 Coeff:     -0.606D-02 0.202D-01 0.213D-01-0.453D+00 0.142D+01
 Gap=     0.405 Goal=   None    Shift=    0.000
 Gap=     0.541 Goal=   None    Shift=    0.000
 RMSDP=5.74D-08 MaxDP=2.07D-06 DE=-6.55D-11 OVMax= 2.66D-06

 Cycle  12  Pass 1  IDiag  1:
 RMSU=  5.69D-09    CP:  7.47D-01  2.83D+00  1.51D+00  1.47D+00  1.80D+00
                    CP:  1.61D+00  1.94D+00  1.64D+00  1.70D+00  1.83D+00
                    CP:  1.63D+00
 FoFJK:  IHMeth= 1 ICntrl=     0 DoSepK=T KAlg= 1 I1Cent= 0 FoldK=F
 E= -40.8608372066543     Delta-E=       -0.000000000005 Rises=F Damp=F
 DIIS: error= 8.13D-08 at cycle  12 NSaved=  12.
 NSaved=12 IEnMin=12 EnMin= -40.8608372066543     IErMin=12 ErrMin= 8.13D-08
 ErrMax= 8.13D-08 EMaxC= 1.00D-01 BMatC= 2.04D-13 BMatP= 3.51D-12
 IDIUse=1 WtCom= 1.00D+00 WtEn= 0.00D+00
 Coeff-Com: -0.334D-06-0.375D-07 0.658D-05-0.141D-05-0.222D-04-0.331D-03
 Coeff-Com:  0.263D-02-0.119D-01 0.216D-01 0.673D-01-0.514D+00 0.143D+01
 Coeff:     -0.334D-06-0.375D-07 0.658D-05-0.141D-05-0.222D-04-0.331D-03
 Coeff:      0.263D-02-0.119D-01 0.216D-01 0.673D-01-0.514D+00 0.143D+01
 Gap=     0.405 Goal=   None    Shift=    0.000
 Gap=     0.541 Goal=   None    Shift=    0.000
 RMSDP=1.02D-08 MaxDP=3.33D-07 DE=-5.06D-12 OVMax= 6.13D-07

 Cycle  13  Pass 1  IDiag  1:
 RMSU=  1.18D-09    CP:  7.47D-01  2.83D+00  1.51D+00  1.47D+00  1.80D+00
                    CP:  1.61D+00  1.94D+00  1.64D+00  1.71D+00  1.85D+00
                    CP:  1.78D+00  1.56D+00
 FoFJK:  IHMeth= 1 ICntrl=     0 DoSepK=T KAlg= 1 I1Cent= 0 FoldK=F
 E= -40.8608372066544     Delta-E=        0.000000000000 Rises=F Damp=F
 DIIS: error= 1.33D-08 at cycle  13 NSaved=  13.
 NSaved=13 IEnMin=13 EnMin= -40.8608372066544     IErMin=13 ErrMin= 1.33D-08
 ErrMax= 1.33D-08 EMaxC= 1.00D-01 BMatC= 7.01D-15 BMatP= 2.04D-13
 IDIUse=1 WtCom= 1.00D+00 WtEn= 0.00D+00
 Coeff-Com:  0.157D-06-0.321D-06-0.232D-05 0.770D-05-0.886D-05 0.463D-04
 Coeff-Com: -0.482D-03 0.268D-02-0.657D-02-0.940D-02 0.125D+00-0.496D+00
 Coeff-Com:  0.138D+01
 Coeff:      0.157D-06-0.321D-06-0.232D-05 0.770D-05-0.886D-05 0.463D-04
 Coeff:     -0.482D-03 0.268D-02-0.657D-02-0.940D-02 0.125D+00-0.496D+00
 Coeff:      0.138D+01
 Gap=     0.405 Goal=   None    Shift=    0.000
 Gap=     0.541 Goal=   None    Shift=    0.000
 RMSDP=1.47D-09 MaxDP=7.18D-08 DE=-9.95D-14 OVMax= 8.99D-08

 SCF Done:  E(ULC-B+HF-LYP) =  -40.8608372067     A.U. after   13 cycles
             Convg  =    0.1473D-08             -V/T =  2.0049
 <Sx>= 0.0000 <Sy>= 0.0000 <Sz>= 0.5000 <S**2>= 0.7647 S= 0.5073
 <L.S>= 0.000000000000E+00
 KE= 4.066310906069D+01 PE=-1.245243471736D+02 EE= 2.773325445916D+01
 Annihilation of the first spin contaminant:
 S**2 before annihilation     0.7647,   after     0.7500
 Leave Link  502 at Wed Nov  3 01:36:10 2010, MaxMem=  786432000 cpu:     304.0
 (Enter /share/apps/G09A02/g09/l601.exe)
 Copying SCF densities to generalized density rwf, IOpCl= 1 IROHF=0.

 **********************************************************************

            Population analysis using the SCF density.

 **********************************************************************

 Alpha  occ. eigenvalues --  -10.14646  -0.87284  -0.59596  -0.55382  -0.55382
 Alpha  occ. eigenvalues --   -0.33628
 Alpha virt. eigenvalues --    0.06833   0.09083   0.09083   0.10147   0.22275
 Alpha virt. eigenvalues --    0.22276   0.23344   0.26983   0.34971   0.34971
 Alpha virt. eigenvalues --    0.40539   0.40539   0.41458   0.46884   0.62795
 Alpha virt. eigenvalues --    0.62795   0.63816   0.70028   0.72441   0.72441
 Alpha virt. eigenvalues --    0.76595   0.83700   0.83700   0.90735   0.96025
 Alpha virt. eigenvalues --    1.08832   1.08832   1.11343   1.11343   1.22913
 Alpha virt. eigenvalues --    1.27898   1.27898   1.35888   1.41860   1.41860
 Alpha virt. eigenvalues --    1.52905   1.90202   1.94960   1.94960   2.10316
 Alpha virt. eigenvalues --    2.10316   2.21313   2.54184   2.62562   2.77773
 Alpha virt. eigenvalues --    2.77773   3.02028   3.06227   3.12721   3.12721
 Alpha virt. eigenvalues --    3.13634   3.38567   3.38567   3.61611   3.67878
 Alpha virt. eigenvalues --    3.67878   3.82833   3.82833   3.93008   4.02895
 Alpha virt. eigenvalues --    4.27048   4.27048   4.29893   4.29893   4.45120
 Alpha virt. eigenvalues --    4.45120   4.52549   4.76308   5.31297   5.60963
 Alpha virt. eigenvalues --    5.77718   5.77718   7.21713   7.21714   7.77833
 Alpha virt. eigenvalues --    7.77833   7.78706  24.21687
  Beta  occ. eigenvalues --  -10.13519  -0.84231  -0.54585  -0.54585  -0.53166
  Beta virt. eigenvalues --    0.00956   0.07783   0.09027   0.09028   0.09878
  Beta virt. eigenvalues --    0.22613   0.22613   0.24497   0.28646   0.35445
  Beta virt. eigenvalues --    0.35445   0.40615   0.40615   0.42693   0.49115
  Beta virt. eigenvalues --    0.63866   0.63866   0.67598   0.70817   0.73712
  Beta virt. eigenvalues --    0.73712   0.76811   0.84646   0.84646   0.91941
  Beta virt. eigenvalues --    0.96001   1.09582   1.09582   1.11935   1.11935
  Beta virt. eigenvalues --    1.24833   1.28153   1.28153   1.36906   1.42691
  Beta virt. eigenvalues --    1.42691   1.54378   1.92082   1.97629   1.97629
  Beta virt. eigenvalues --    2.11315   2.11315   2.25080   2.57000   2.66602
  Beta virt. eigenvalues --    2.78927   2.78927   3.02788   3.06627   3.15081
  Beta virt. eigenvalues --    3.15081   3.15994   3.40338   3.40338   3.65861
  Beta virt. eigenvalues --    3.68871   3.68871   3.88268   3.88268   3.94781
  Beta virt. eigenvalues --    4.04234   4.27266   4.27267   4.30097   4.30097
  Beta virt. eigenvalues --    4.45855   4.45855   4.54449   4.76581   5.32351
  Beta virt. eigenvalues --    5.64145   5.78278   5.78278   7.25884   7.25885
  Beta virt. eigenvalues --    7.79501   7.79502   7.84246  24.23179
          Condensed to atoms (all electrons):
              1          2          3          4          5          6
     1  C    5.271990   0.185358   0.406121   0.406120   0.406120  -0.107250
     2  H    0.185358   0.539929  -0.008941  -0.008940  -0.008940   0.234874
     3  H    0.406121  -0.008941   0.451678  -0.017873  -0.017873  -0.000564
     4  H    0.406120  -0.008940  -0.017873   0.451679  -0.017872  -0.000564
     5  H    0.406120  -0.008940  -0.017873  -0.017872   0.451679  -0.000564
     6  H   -0.107250   0.234874  -0.000564  -0.000564  -0.000564   0.934625
 Mulliken atomic charges:
              1
     1  C   -0.568459
     2  H    0.066661
     3  H    0.187453
     4  H    0.187451
     5  H    0.187451
     6  H   -0.060556
 Sum of Mulliken atomic charges =   0.00000
 Mulliken charges with hydrogens summed into heavy atoms:
              1
     1  C    0.000000
 Sum of Mulliken charges with hydrogens summed into heavy atoms =   0.00000
          Atomic-Atomic Spin Densities.
              1          2          3          4          5          6
     1  C    0.759362   0.052921  -0.000053  -0.000053  -0.000053  -0.137934
     2  H    0.052921  -0.197730   0.002438   0.002438   0.002438  -0.032019
     3  H   -0.000053   0.002438  -0.018052   0.001583   0.001583   0.001745
     4  H   -0.000053   0.002438   0.001583  -0.018052   0.001583   0.001744
     5  H   -0.000053   0.002438   0.001583   0.001583  -0.018052   0.001744
     6  H   -0.137934  -0.032019   0.001745   0.001744   0.001744   0.692314
 Mulliken atomic spin densities:
              1
     1  C    0.674189
     2  H   -0.169515
     3  H   -0.010756
     4  H   -0.010756
     5  H   -0.010756
     6  H    0.527594
 Sum of Mulliken atomic spin densities =   1.00000
 Electronic spatial extent (au):  <R**2>=             61.7549
 Charge=              0.0000 electrons
 Dipole moment (field-independent basis, Debye):
    X=              0.0000    Y=              0.0000    Z=             -0.6947  Tot=              0.6947
 Quadrupole moment (field-independent basis, Debye-Ang):
   XX=             -9.5525   YY=             -9.5525   ZZ=            -12.1321
   XY=              0.0000   XZ=              0.0000   YZ=              0.0000
 Traceless Quadrupole moment (field-independent basis, Debye-Ang):
   XX=              0.8599   YY=              0.8598   ZZ=             -1.7197
   XY=              0.0000   XZ=              0.0000   YZ=              0.0000
 Octapole moment (field-independent basis, Debye-Ang**2):
  XXX=              0.8670  YYY=              0.0000  ZZZ=            -14.3504  XYY=             -0.8670
  XXY=              0.0000  XXZ=             -4.1583  XZZ=              0.0000  YZZ=              0.0000
  YYZ=             -4.1583  XYZ=              0.0000
 Hexadecapole moment (field-independent basis, Debye-Ang**3):
 XXXX=            -17.6347 YYYY=            -17.6347 ZZZZ=            -74.9092 XXXY=              0.0000
 XXXZ=             -0.3339 YYYX=              0.0000 YYYZ=              0.0000 ZZZX=              0.0000
 ZZZY=              0.0000 XXYY=             -5.8782 XXZZ=            -14.7112 YYZZ=            -14.7112
 XXYZ=              0.0000 YYXZ=              0.3339 ZZXY=              0.0000
 N-N= 1.526714644714D+01 E-N=-1.839726636265D+02  KE= 6.040284278778D+01
                          Isotropic Fermi Contact Couplings
        Atom                 a.u.       MegaHertz       Gauss      10(-4) cm-1
     1  C(13)              0.16050     180.43127      64.38236      60.18539
     2  H(1)              -0.04755    -212.53397     -75.83740     -70.89370
     3  H(1)              -0.00737     -32.94711     -11.75635     -10.98997
     4  H(1)              -0.00737     -32.94734     -11.75643     -10.99005
     5  H(1)              -0.00737     -32.94734     -11.75643     -10.99005
     6  H(1)               0.16335     730.17213     260.54356     243.55921
 --------------------------------------------------------
       Center         ----  Spin Dipole Couplings  ----
                      3XX-RR        3YY-RR        3ZZ-RR
 --------------------------------------------------------
     1   Atom       -0.422315     -0.422315      0.844630
     2   Atom       -0.118820     -0.118820      0.237641
     3   Atom        0.047933     -0.050974      0.003040
     4   Atom       -0.026247      0.023207      0.003040
     5   Atom       -0.026247      0.023207      0.003040
     6   Atom        0.006721      0.006721     -0.013443
 --------------------------------------------------------
                        XY            XZ            YZ
 --------------------------------------------------------
     1   Atom        0.000000      0.000000      0.000000
     2   Atom        0.000000      0.000000      0.000000
     3   Atom        0.000000     -0.018641      0.000000
     4   Atom        0.042828      0.009321      0.016144
     5   Atom       -0.042828      0.009321     -0.016144
     6   Atom        0.000000      0.000000      0.000000
 --------------------------------------------------------


 ---------------------------------------------------------------------------------
              Anisotropic Spin Dipole Couplings in Principal Axis System
 ---------------------------------------------------------------------------------

       Atom             a.u.   MegaHertz   Gauss  10(-4) cm-1        Axes

              Baa    -0.4223   -56.671   -20.222   -18.903  0.0000  1.0000  0.0000
     1 C(13)  Bbb    -0.4223   -56.671   -20.221   -18.903  1.0000  0.0000  0.0000
              Bcc     0.8446   113.341    40.443    37.807  0.0000  0.0000  1.0000
 
              Baa    -0.1188   -63.397   -22.622   -21.147  0.0000  1.0000  0.0000
     2 H(1)   Bbb    -0.1188   -63.397   -22.622   -21.147  1.0000  0.0000  0.0000
              Bcc     0.2376   126.794    45.243    42.294  0.0000  0.0000  1.0000
 
              Baa    -0.0510   -27.197    -9.705    -9.072  0.0000  1.0000  0.0000
     3 H(1)   Bbb    -0.0037    -1.969    -0.703    -0.657  0.3396  0.0000  0.9406
              Bcc     0.0547    29.166    10.407     9.729  0.9406  0.0000 -0.3396
 
              Baa    -0.0510   -27.197    -9.705    -9.072  0.8660 -0.5000  0.0000
     4 H(1)   Bbb    -0.0037    -1.969    -0.703    -0.657 -0.1698 -0.2941  0.9406
              Bcc     0.0547    29.166    10.407     9.729  0.4703  0.8145  0.3396
 
              Baa    -0.0510   -27.197    -9.705    -9.072  0.8660  0.5000  0.0000
     5 H(1)   Bbb    -0.0037    -1.969    -0.703    -0.657 -0.1698  0.2941  0.9406
              Bcc     0.0547    29.166    10.407     9.729 -0.4703  0.8145 -0.3396
 
              Baa    -0.0134    -7.172    -2.559    -2.392  0.0000  0.0000  1.0000
     6 H(1)   Bbb     0.0067     3.586     1.280     1.196  0.0000  1.0000  0.0000
              Bcc     0.0067     3.586     1.280     1.196  1.0000  0.0000  0.0000
 

 ---------------------------------------------------------------------------------

 No NMR shielding tensors so no spin-rotation constants.
 Leave Link  601 at Wed Nov  3 01:36:10 2010, MaxMem=  786432000 cpu:       4.2
 (Enter /share/apps/G09A02/g09/l9999.exe)
 1\1\GINC-COMPUTE-0-7\SP\ULC-BLYP\6-311+G(3df,2p)\C1H5(2)\WENXINZY\03-N
 ov-2010\0\\#p lc-blyp/6-311+g(3df,2p) nosymm scf=tight\\2 H2+CH3\\0,2\
 C\H,1,1.4073336\H,1,1.0847559,2,102.9548742\H,1,1.0847559,2,102.954874
 2,3,120.,0\H,1,1.0847559,2,102.9548742,3,-120.,0\H,2,0.8902933,1,180.,
 3,0.,0\\Version=EM64L-G09RevA.02\HF=-40.8608372\S2=0.764748\S2-1=0.\S2
 A=0.750047\RMSD=1.473e-09\Dipole=-0.0000005,0.,-0.2733045\Quadrupole=0
 .6392778,0.6392773,-1.2785551,0.,-0.0000024,0.\PG=C03V [C3(H1H1C1),3SG
 V(H1)]\\@


 THE MOLECULE ALSO HAS A BODY.  WHEN THIS BODY IS HIT, THE MOLECULE
 FEELS HURT ALL OVER -- A. KITAIGORODSKI
 Job cpu time:  0 days  0 hours  5 minutes 19.0 seconds.
 File lengths (MBytes):  RWF=      9 Int=      0 D2E=      0 Chk=      1 Scr=      1
 Normal termination of Gaussian 09 at Wed Nov  3 01:36:10 2010.
