 Entering Gaussian System, Link 0=/share/apps/G09A02/g09/g09
 Input=./.script12553/Job_H2_CH3_28.com
 Output=./.script12553/Job_H2_CH3_28.log
 Initial command:
 /share/apps/G09A02/g09/l1.exe /state/partition1/wenxinzy/scratch/Gau-20418.inp -scrdir=/state/partition1/wenxinzy/scratch/
 Default is to use a total of   8 processors:
                                8 via shared-memory
                                1 via Linda
 Entering Link 1 = /share/apps/G09A02/g09/l1.exe PID=     20419.
  
 Copyright (c) 1988,1990,1992,1993,1995,1998,2003,2009, Gaussian, Inc.
                  All Rights Reserved.
  
 This is part of the Gaussian(R) 09 program.  It is based on
 the Gaussian(R) 03 system (copyright 2003, Gaussian, Inc.),
 the Gaussian(R) 98 system (copyright 1998, Gaussian, Inc.),
 the Gaussian(R) 94 system (copyright 1995, Gaussian, Inc.),
 the Gaussian 92(TM) system (copyright 1992, Gaussian, Inc.),
 the Gaussian 90(TM) system (copyright 1990, Gaussian, Inc.),
 the Gaussian 88(TM) system (copyright 1988, Gaussian, Inc.),
 the Gaussian 86(TM) system (copyright 1986, Carnegie Mellon
 University), and the Gaussian 82(TM) system (copyright 1983,
 Carnegie Mellon University). Gaussian is a federally registered
 trademark of Gaussian, Inc.
  
 This software contains proprietary and confidential information,
 including trade secrets, belonging to Gaussian, Inc.
  
 This software is provided under written license and may be
 used, copied, transmitted, or stored only in accord with that
 written license.
  
 The following legend is applicable only to US Government
 contracts under FAR:
  
                    RESTRICTED RIGHTS LEGEND
  
 Use, reproduction and disclosure by the US Government is
 subject to restrictions as set forth in subparagraphs (a)
 and (c) of the Commercial Computer Software - Restricted
 Rights clause in FAR 52.227-19.
  
 Gaussian, Inc.
 340 Quinnipiac St., Bldg. 40, Wallingford CT 06492
  
  
 ---------------------------------------------------------------
 Warning -- This program may not be used in any manner that
 competes with the business of Gaussian, Inc. or will provide
 assistance to any competitor of Gaussian, Inc.  The licensee
 of this program is prohibited from giving any competitor of
 Gaussian, Inc. access to this program.  By using this program,
 the user acknowledges that Gaussian, Inc. is engaged in the
 business of creating and licensing software in the field of
 computational chemistry and represents and warrants to the
 licensee that it is not a competitor of Gaussian, Inc. and that
 it will not use this program in any manner prohibited above.
 ---------------------------------------------------------------
  

 Cite this work as:
 Gaussian 09, Revision A.02,
 M. J. Frisch, G. W. Trucks, H. B. Schlegel, G. E. Scuseria, 
 M. A. Robb, J. R. Cheeseman, G. Scalmani, V. Barone, B. Mennucci, 
 G. A. Petersson, H. Nakatsuji, M. Caricato, X. Li, H. P. Hratchian, 
 A. F. Izmaylov, J. Bloino, G. Zheng, J. L. Sonnenberg, M. Hada, 
 M. Ehara, K. Toyota, R. Fukuda, J. Hasegawa, M. Ishida, T. Nakajima, 
 Y. Honda, O. Kitao, H. Nakai, T. Vreven, J. A. Montgomery, Jr., 
 J. E. Peralta, F. Ogliaro, M. Bearpark, J. J. Heyd, E. Brothers, 
 K. N. Kudin, V. N. Staroverov, R. Kobayashi, J. Normand, 
 K. Raghavachari, A. Rendell, J. C. Burant, S. S. Iyengar, J. Tomasi, 
 M. Cossi, N. Rega, J. M. Millam, M. Klene, J. E. Knox, J. B. Cross, 
 V. Bakken, C. Adamo, J. Jaramillo, R. Gomperts, R. E. Stratmann, 
 O. Yazyev, A. J. Austin, R. Cammi, C. Pomelli, J. W. Ochterski, 
 R. L. Martin, K. Morokuma, V. G. Zakrzewski, G. A. Voth, 
 P. Salvador, J. J. Dannenberg, S. Dapprich, A. D. Daniels, 
 O. Farkas, J. B. Foresman, J. V. Ortiz, J. Cioslowski, 
 and D. J. Fox, Gaussian, Inc., Wallingford CT, 2009.
 
 ******************************************
 Gaussian 09:  EM64L-G09RevA.02 11-Jun-2009
                 3-Nov-2010 
 ******************************************
 %chk=/state/partition1/wenxinzy/scratch/H2_CH3_28.chk
 %nproc=8
 Will use up to    8 processors via shared memory.
 %mem=6000mb
 -------------------------------------------
 #p lc-blyp/6-311+g(3df,2p) nosymm scf=tight
 -------------------------------------------
 1/38=1/1;
 2/12=2,15=1,17=6,18=5,40=1/2;
 3/5=4,6=6,7=216,11=2,16=1,25=1,30=1,74=1000402/1,2,3;
 4//1;
 5/5=2,32=2,38=5/2;
 6/7=2,8=2,9=2,10=2,28=1/1;
 99/5=1,9=1/99;
 Leave Link    1 at Wed Nov  3 01:51:53 2010, MaxMem=  786432000 cpu:       0.3
 (Enter /share/apps/G09A02/g09/l101.exe)
 ---------
 29 H2+CH3
 ---------
 Symbolic Z-matrix:
 Charge =  0 Multiplicity = 2
 C
 H1                   C    R1
 H2                   C    R2       H1   A1
 H3                   C    R2       H1   A1       H2    120.     0
 H4                   C    R2       H1   A1       H2   -120.     0
 H5                   H1   R3       C     180.     H2    0.       0
       Variables:
  R1                    2.90258                  
  R2                    1.07924                  
  A1                   90.21812                  
  R3                    0.74374                  
 
 NAtoms=      6 NQM=      6 NQMF=      0 NMic=      0 NMicF=      0 NTot=      6.
                    Isotopes and Nuclear Properties:
 (Nuclear quadrupole moments (NQMom) in fm**2, nuclear magnetic moments (NMagM)
  in nuclear magnetons)

  Atom         1           2           3           4           5           6
 IAtWgt=          12           1           1           1           1           1
 AtmWgt=  12.0000000   1.0078250   1.0078250   1.0078250   1.0078250   1.0078250
 NucSpn=           0           1           1           1           1           1
 AtZEff=   0.0000000   0.0000000   0.0000000   0.0000000   0.0000000   0.0000000
 NQMom=    0.0000000   0.0000000   0.0000000   0.0000000   0.0000000   0.0000000
 NMagM=    0.0000000   2.7928460   2.7928460   2.7928460   2.7928460   2.7928460
 Leave Link  101 at Wed Nov  3 01:51:54 2010, MaxMem=  786432000 cpu:       1.0
 (Enter /share/apps/G09A02/g09/l202.exe)
                          Input orientation:                          
 ---------------------------------------------------------------------
 Center     Atomic      Atomic             Coordinates (Angstroms)
 Number     Number       Type             X           Y           Z
 ---------------------------------------------------------------------
      1          6           0        0.000000    0.000000    0.000000
      2          1           0        0.000000    0.000000    2.902579
      3          1           0        1.079237    0.000000   -0.004109
      4          1           0       -0.539619   -0.934647   -0.004109
      5          1           0       -0.539619    0.934647   -0.004109
      6          1           0        0.000000    0.000000    3.646324
 ---------------------------------------------------------------------
                    Distance matrix (angstroms):
                    1          2          3          4          5
     1  C    0.000000
     2  H    2.902579   0.000000
     3  H    1.079245   3.100578   0.000000
     4  H    1.079245   3.100578   1.869293   0.000000
     5  H    1.079245   3.100578   1.869293   1.869293   0.000000
     6  H    3.646324   0.743745   3.806627   3.806627   3.806627
                    6
     6  H    0.000000
 Symmetry turned off by external request.
 Stoichiometry    CH5(2)
 Framework group  C3V[C3(HHC),3SGV(H)]
 Deg. of freedom     4
 Full point group                 C3V     NOp   6
 Rotational constants (GHZ):    143.5083207     23.9465160     23.9465160
 Leave Link  202 at Wed Nov  3 01:51:54 2010, MaxMem=  786432000 cpu:       0.1
 (Enter /share/apps/G09A02/g09/l301.exe)
 Standard basis: 6-311+G(3df,2p) (5D, 7F)
 Ernie: Thresh=  0.10000D-02 Tol=  0.10000D-05 Strict=F.
 Integral buffers will be    131072 words long.
 Raffenetti 2 integral format.
 Two-electron integral symmetry is turned off.
    84 basis functions,   113 primitive gaussians,    90 cartesian basis functions
     6 alpha electrons        5 beta electrons
       nuclear repulsion energy        13.2802525229 Hartrees.
 IExCor=10402 DFT=T Ex=LC-B+HF Corr=LYP ExCW=0 ScaHFX=  1.000000
 ScaDFX=  1.000000  1.000000  1.000000  1.000000 ScalE2=  1.000000  1.000000
 IRadAn=      0 IRanWt=     -1 IRanGd=            0 ICorTp=0
  HFx wShort=  0.000000 wLong=  0.470000 cFull=  0.000000 cShort=  0.000000 cLong=  1.000000
  DFx wShort=  0.000000 wLong=  0.470000 cFull=  0.000000 cShort=  0.000000 cLong=  1.000000
 NAtoms=    6 NActive=    6 NUniq=    6 SFac= 7.50D-01 NAtFMM=   80 NAOKFM=F Big=F
 Leave Link  301 at Wed Nov  3 01:51:54 2010, MaxMem=  786432000 cpu:       0.7
 (Enter /share/apps/G09A02/g09/l302.exe)
 NPDir=0 NMtPBC=     1 NCelOv=     1 NCel=       1 NClECP=     1 NCelD=      1
         NCelK=      1 NCelE2=     1 NClLst=     1 CellRange=     0.0.
 One-electron integrals computed using PRISM.
 NBasis=    84 RedAO= T  NBF=    84
 NBsUse=    84 1.00D-06 NBFU=    84
 Precomputing XC quadrature grid using
 IXCGrd= 2 IRadAn=           0 IRanWt=          -1 IRanGd=           0 AccXCQ= 1.00D-10.
 NRdTot=     384 NPtTot=       48302 NUsed=       51081 NTot=       51113
 NSgBfM=    90    90    90    90    90 NAtAll=     6     6.
 Leave Link  302 at Wed Nov  3 01:51:54 2010, MaxMem=  786432000 cpu:       2.5
 (Enter /share/apps/G09A02/g09/l303.exe)
 DipDrv:  MaxL=1.
 Leave Link  303 at Wed Nov  3 01:51:54 2010, MaxMem=  786432000 cpu:       0.4
 (Enter /share/apps/G09A02/g09/l401.exe)
 Harris functional with IExCor=10402 diagonalized for initial guess.
 ExpMin= 4.38D-02 ExpMax= 4.56D+03 ExpMxC= 6.82D+02 IAcc=2 IRadAn=         0 AccDes= 0.00D+00
 HarFok:  IExCor=10402 AccDes= 0.00D+00 IRadAn=         0 IDoV= 1
 ScaDFX=  1.000000  1.000000  1.000000  1.000000
 FoFCou: FMM=F IPFlag=           0 FMFlag=      100000 FMFlg1=           0
         NFxFlg=           0 DoJE=T BraDBF=F KetDBF=T FulRan=T
         Omega=  0.000000  0.000000  1.000000  0.000000  0.000000 ICntrl=     500 IOpCl=  0
         NMat0=    1 NMatS0=    1 NMatT0=    0 NMatD0=    1 NMtDS0=    0 NMtDT0=    0
         I1Cent=           4 NGrid=           0.
 Symmetry not used in FoFCou.
 Harris En= -38.5360494986270    
 Initial guess <Sx>= 0.0000 <Sy>= 0.0000 <Sz>= 0.5000 <S**2>= 0.7500 S= 0.5000
 Leave Link  401 at Wed Nov  3 01:51:55 2010, MaxMem=  786432000 cpu:       3.7
 (Enter /share/apps/G09A02/g09/l502.exe)
 UHF open shell SCF:
 Requested convergence on RMS density matrix=1.00D-08 within 128 cycles.
 Requested convergence on MAX density matrix=1.00D-06.
 Requested convergence on             energy=1.00D-06.
 No special actions if energy rises.
 Using DIIS extrapolation, IDIIS=  1040.
 Two-electron integral symmetry not used.
        51014 words used for storage of precomputed grid.
 IEnd=       94732 IEndB=       94732 NGot=   786432000 MDV=   786362099
 LenX=   786362099 LenY=   786353558
 Fock matrices will be formed incrementally for  20 cycles.

 Cycle   1  Pass 1  IDiag  1:
 FoFJK:  IHMeth= 1 ICntrl=     0 DoSepK=T KAlg= 1 I1Cent= 0 FoldK=F
 FoFCou: FMM=F IPFlag=           0 FMFlag=      100000 FMFlg1=           0
         NFxFlg=           0 DoJE=T BraDBF=F KetDBF=F FulRan=T
         Omega=  0.000000  0.000000  1.000000  0.000000  0.000000 ICntrl=     500 IOpCl=  0
         NMat0=    1 NMatS0=    1 NMatT0=    0 NMatD0=    1 NMtDS0=    0 NMtDT0=    0
         I1Cent=           0 NGrid=           0.
 Symmetry not used in FoFCou.
 E= -40.8562595594025    
 DIIS: error= 2.08D-02 at cycle   1 NSaved=   1.
 NSaved= 1 IEnMin= 1 EnMin= -40.8562595594025     IErMin= 1 ErrMin= 2.08D-02
 ErrMax= 2.08D-02 EMaxC= 1.00D-01 BMatC= 6.07D-02 BMatP= 6.07D-02
 IDIUse=3 WtCom= 7.92D-01 WtEn= 2.08D-01
 Coeff-Com:  0.100D+01
 Coeff-En:   0.100D+01
 Coeff:      0.100D+01
 Gap=     0.390 Goal=   None    Shift=    0.000
 Gap=     0.620 Goal=   None    Shift=    0.000
 GapD=    0.390 DampG=1.000 DampE=0.500 DampFc=0.5000 IDamp=-1.
 Damping current iteration by 5.00D-01
 RMSDP=1.47D-03 MaxDP=6.46D-02              OVMax= 5.27D-02

 Cycle   2  Pass 1  IDiag  1:
 RMSU=  5.40D-04    CP:  9.82D-01
 FoFJK:  IHMeth= 1 ICntrl=     0 DoSepK=T KAlg= 1 I1Cent= 0 FoldK=F
 E= -40.8649229201032     Delta-E=       -0.008663360701 Rises=F Damp=T
 DIIS: error= 9.33D-03 at cycle   2 NSaved=   2.
 NSaved= 2 IEnMin= 2 EnMin= -40.8649229201032     IErMin= 2 ErrMin= 9.33D-03
 ErrMax= 9.33D-03 EMaxC= 1.00D-01 BMatC= 9.85D-03 BMatP= 6.07D-02
 IDIUse=3 WtCom= 9.07D-01 WtEn= 9.33D-02
 Coeff-Com: -0.434D+00 0.143D+01
 Coeff-En:   0.000D+00 0.100D+01
 Coeff:     -0.393D+00 0.139D+01
 Gap=     0.430 Goal=   None    Shift=    0.000
 Gap=     0.565 Goal=   None    Shift=    0.000
 RMSDP=8.07D-04 MaxDP=2.47D-02 DE=-8.66D-03 OVMax= 4.36D-02

 Cycle   3  Pass 1  IDiag  1:
 RMSU=  4.70D-04    CP:  9.75D-01  1.88D+00
 FoFJK:  IHMeth= 1 ICntrl=     0 DoSepK=T KAlg= 1 I1Cent= 0 FoldK=F
 E= -40.8746532570834     Delta-E=       -0.009730336980 Rises=F Damp=F
 DIIS: error= 2.87D-03 at cycle   3 NSaved=   3.
 NSaved= 3 IEnMin= 3 EnMin= -40.8746532570834     IErMin= 3 ErrMin= 2.87D-03
 ErrMax= 2.87D-03 EMaxC= 1.00D-01 BMatC= 7.21D-04 BMatP= 9.85D-03
 IDIUse=3 WtCom= 9.71D-01 WtEn= 2.87D-02
 Coeff-Com: -0.651D-01-0.667D-01 0.113D+01
 Coeff-En:   0.000D+00 0.000D+00 0.100D+01
 Coeff:     -0.632D-01-0.647D-01 0.113D+01
 Gap=     0.433 Goal=   None    Shift=    0.000
 Gap=     0.564 Goal=   None    Shift=    0.000
 RMSDP=2.71D-04 MaxDP=1.01D-02 DE=-9.73D-03 OVMax= 2.21D-02

 Cycle   4  Pass 1  IDiag  1:
 RMSU=  7.12D-05    CP:  9.72D-01  2.15D+00  1.32D+00
 FoFJK:  IHMeth= 1 ICntrl=     0 DoSepK=T KAlg= 1 I1Cent= 0 FoldK=F
 E= -40.8751865891946     Delta-E=       -0.000533332111 Rises=F Damp=F
 DIIS: error= 1.29D-03 at cycle   4 NSaved=   4.
 NSaved= 4 IEnMin= 4 EnMin= -40.8751865891946     IErMin= 4 ErrMin= 1.29D-03
 ErrMax= 1.29D-03 EMaxC= 1.00D-01 BMatC= 5.67D-05 BMatP= 7.21D-04
 IDIUse=3 WtCom= 9.87D-01 WtEn= 1.29D-02
 Coeff-Com:  0.340D-01-0.533D-01-0.358D+00 0.138D+01
 Coeff-En:   0.000D+00 0.000D+00 0.000D+00 0.100D+01
 Coeff:      0.335D-01-0.527D-01-0.353D+00 0.137D+01
 Gap=     0.435 Goal=   None    Shift=    0.000
 Gap=     0.564 Goal=   None    Shift=    0.000
 RMSDP=1.09D-04 MaxDP=4.17D-03 DE=-5.33D-04 OVMax= 9.80D-03

 Cycle   5  Pass 1  IDiag  1:
 RMSU=  1.37D-05    CP:  9.71D-01  2.22D+00  1.46D+00  1.68D+00
 FoFJK:  IHMeth= 1 ICntrl=     0 DoSepK=T KAlg= 1 I1Cent= 0 FoldK=F
 E= -40.8752498188618     Delta-E=       -0.000063229667 Rises=F Damp=F
 DIIS: error= 2.30D-04 at cycle   5 NSaved=   5.
 NSaved= 5 IEnMin= 5 EnMin= -40.8752498188618     IErMin= 5 ErrMin= 2.30D-04
 ErrMax= 2.30D-04 EMaxC= 1.00D-01 BMatC= 3.62D-06 BMatP= 5.67D-05
 IDIUse=3 WtCom= 9.98D-01 WtEn= 2.30D-03
 Coeff-Com: -0.667D-02 0.220D-01 0.706D-01-0.535D+00 0.145D+01
 Coeff-En:   0.000D+00 0.000D+00 0.000D+00 0.000D+00 0.100D+01
 Coeff:     -0.666D-02 0.219D-01 0.704D-01-0.533D+00 0.145D+01
 Gap=     0.435 Goal=   None    Shift=    0.000
 Gap=     0.564 Goal=   None    Shift=    0.000
 RMSDP=2.36D-05 MaxDP=7.19D-04 DE=-6.32D-05 OVMax= 1.54D-03

 Cycle   6  Pass 1  IDiag  1:
 RMSU=  4.16D-06    CP:  9.71D-01  2.23D+00  1.47D+00  1.86D+00  1.70D+00
 FoFJK:  IHMeth= 1 ICntrl=     0 DoSepK=T KAlg= 1 I1Cent= 0 FoldK=F
 E= -40.8752531324039     Delta-E=       -0.000003313542 Rises=F Damp=F
 DIIS: error= 4.00D-05 at cycle   6 NSaved=   6.
 NSaved= 6 IEnMin= 6 EnMin= -40.8752531324039     IErMin= 6 ErrMin= 4.00D-05
 ErrMax= 4.00D-05 EMaxC= 1.00D-01 BMatC= 1.93D-07 BMatP= 3.62D-06
 IDIUse=1 WtCom= 1.00D+00 WtEn= 0.00D+00
 Coeff-Com: -0.138D-03-0.357D-02-0.828D-02 0.120D+00-0.509D+00 0.140D+01
 Coeff:     -0.138D-03-0.357D-02-0.828D-02 0.120D+00-0.509D+00 0.140D+01
 Gap=     0.435 Goal=   None    Shift=    0.000
 Gap=     0.564 Goal=   None    Shift=    0.000
 RMSDP=4.76D-06 MaxDP=9.93D-05 DE=-3.31D-06 OVMax= 2.33D-04

 Cycle   7  Pass 1  IDiag  1:
 RMSU=  1.29D-06    CP:  9.71D-01  2.23D+00  1.47D+00  1.87D+00  1.84D+00
                    CP:  1.76D+00
 FoFJK:  IHMeth= 1 ICntrl=     0 DoSepK=T KAlg= 1 I1Cent= 0 FoldK=F
 E= -40.8752533122874     Delta-E=       -0.000000179883 Rises=F Damp=F
 DIIS: error= 1.25D-05 at cycle   7 NSaved=   7.
 NSaved= 7 IEnMin= 7 EnMin= -40.8752533122874     IErMin= 7 ErrMin= 1.25D-05
 ErrMax= 1.25D-05 EMaxC= 1.00D-01 BMatC= 1.38D-08 BMatP= 1.93D-07
 IDIUse=1 WtCom= 1.00D+00 WtEn= 0.00D+00
 Coeff-Com:  0.825D-03-0.153D-02-0.366D-02 0.202D-01-0.173D-01-0.299D+00
 Coeff-Com:  0.130D+01
 Coeff:      0.825D-03-0.153D-02-0.366D-02 0.202D-01-0.173D-01-0.299D+00
 Coeff:      0.130D+01
 Gap=     0.435 Goal=   None    Shift=    0.000
 Gap=     0.564 Goal=   None    Shift=    0.000
 RMSDP=1.57D-06 MaxDP=3.54D-05 DE=-1.80D-07 OVMax= 7.72D-05

 Cycle   8  Pass 1  IDiag  1:
 RMSU=  2.70D-07    CP:  9.71D-01  2.23D+00  1.47D+00  1.87D+00  1.86D+00
                    CP:  2.02D+00  1.50D+00
 FoFJK:  IHMeth= 1 ICntrl=     0 DoSepK=T KAlg= 1 I1Cent= 0 FoldK=F
 E= -40.8752533249024     Delta-E=       -0.000000012615 Rises=F Damp=F
 DIIS: error= 1.59D-06 at cycle   8 NSaved=   8.
 NSaved= 8 IEnMin= 8 EnMin= -40.8752533249024     IErMin= 8 ErrMin= 1.59D-06
 ErrMax= 1.59D-06 EMaxC= 1.00D-01 BMatC= 3.92D-10 BMatP= 1.38D-08
 IDIUse=1 WtCom= 1.00D+00 WtEn= 0.00D+00
 Coeff-Com: -0.100D-04 0.243D-03 0.742D-03-0.832D-02 0.308D-01-0.609D-01
 Coeff-Com: -0.750D-01 0.111D+01
 Coeff:     -0.100D-04 0.243D-03 0.742D-03-0.832D-02 0.308D-01-0.609D-01
 Coeff:     -0.750D-01 0.111D+01
 Gap=     0.435 Goal=   None    Shift=    0.000
 Gap=     0.564 Goal=   None    Shift=    0.000
 RMSDP=2.47D-07 MaxDP=7.85D-06 DE=-1.26D-08 OVMax= 8.95D-06

 Cycle   9  Pass 1  IDiag  1:
 RMSU=  4.29D-08    CP:  9.71D-01  2.23D+00  1.47D+00  1.87D+00  1.85D+00
                    CP:  2.04D+00  1.60D+00  1.35D+00
 FoFJK:  IHMeth= 1 ICntrl=     0 DoSepK=T KAlg= 1 I1Cent= 0 FoldK=F
 E= -40.8752533251461     Delta-E=       -0.000000000244 Rises=F Damp=F
 DIIS: error= 6.53D-07 at cycle   9 NSaved=   9.
 NSaved= 9 IEnMin= 9 EnMin= -40.8752533251461     IErMin= 9 ErrMin= 6.53D-07
 ErrMax= 6.53D-07 EMaxC= 1.00D-01 BMatC= 2.16D-11 BMatP= 3.92D-10
 IDIUse=1 WtCom= 1.00D+00 WtEn= 0.00D+00
 Coeff-Com: -0.357D-04 0.560D-05-0.875D-04 0.143D-02-0.733D-02 0.266D-01
 Coeff-Com: -0.236D-01-0.275D+00 0.128D+01
 Coeff:     -0.357D-04 0.560D-05-0.875D-04 0.143D-02-0.733D-02 0.266D-01
 Coeff:     -0.236D-01-0.275D+00 0.128D+01
 Gap=     0.435 Goal=   None    Shift=    0.000
 Gap=     0.564 Goal=   None    Shift=    0.000
 RMSDP=5.71D-08 MaxDP=1.37D-06 DE=-2.44D-10 OVMax= 3.18D-06

 Cycle  10  Pass 1  IDiag  1:
 RMSU=  1.59D-08    CP:  9.71D-01  2.23D+00  1.47D+00  1.87D+00  1.85D+00
                    CP:  2.04D+00  1.61D+00  1.43D+00  1.50D+00
 FoFJK:  IHMeth= 1 ICntrl=     0 DoSepK=T KAlg= 1 I1Cent= 0 FoldK=F
 E= -40.8752533251645     Delta-E=       -0.000000000018 Rises=F Damp=F
 DIIS: error= 3.13D-07 at cycle  10 NSaved=  10.
 NSaved=10 IEnMin=10 EnMin= -40.8752533251645     IErMin=10 ErrMin= 3.13D-07
 ErrMax= 3.13D-07 EMaxC= 1.00D-01 BMatC= 3.24D-12 BMatP= 2.16D-11
 IDIUse=1 WtCom= 1.00D+00 WtEn= 0.00D+00
 Coeff-Com:  0.257D-04-0.270D-04-0.250D-05-0.191D-03 0.197D-02-0.112D-01
 Coeff-Com:  0.192D-01 0.794D-01-0.734D+00 0.164D+01
 Coeff:      0.257D-04-0.270D-04-0.250D-05-0.191D-03 0.197D-02-0.112D-01
 Coeff:      0.192D-01 0.794D-01-0.734D+00 0.164D+01
 Gap=     0.435 Goal=   None    Shift=    0.000
 Gap=     0.564 Goal=   None    Shift=    0.000
 RMSDP=2.39D-08 MaxDP=6.68D-07 DE=-1.84D-11 OVMax= 1.70D-06

 Cycle  11  Pass 1  IDiag  1:
 RMSU=  6.56D-09    CP:  9.71D-01  2.23D+00  1.47D+00  1.87D+00  1.86D+00
                    CP:  2.04D+00  1.61D+00  1.44D+00  1.72D+00  1.81D+00
 FoFJK:  IHMeth= 1 ICntrl=     0 DoSepK=T KAlg= 1 I1Cent= 0 FoldK=F
 E= -40.8752533251695     Delta-E=       -0.000000000005 Rises=F Damp=F
 DIIS: error= 9.65D-08 at cycle  11 NSaved=  11.
 NSaved=11 IEnMin=11 EnMin= -40.8752533251695     IErMin=11 ErrMin= 9.65D-08
 ErrMax= 9.65D-08 EMaxC= 1.00D-01 BMatC= 3.21D-13 BMatP= 3.24D-12
 IDIUse=1 WtCom= 1.00D+00 WtEn= 0.00D+00
 Coeff-Com: -0.802D-05 0.130D-04 0.104D-04-0.102D-03 0.924D-04 0.148D-02
 Coeff-Com: -0.579D-02 0.182D-02 0.150D+00-0.694D+00 0.155D+01
 Coeff:     -0.802D-05 0.130D-04 0.104D-04-0.102D-03 0.924D-04 0.148D-02
 Coeff:     -0.579D-02 0.182D-02 0.150D+00-0.694D+00 0.155D+01
 Gap=     0.435 Goal=   None    Shift=    0.000
 Gap=     0.564 Goal=   None    Shift=    0.000
 RMSDP=8.75D-09 MaxDP=2.92D-07 DE=-4.97D-12 OVMax= 6.35D-07

 SCF Done:  E(ULC-B+HF-LYP) =  -40.8752533252     A.U. after   11 cycles
             Convg  =    0.8751D-08             -V/T =  2.0049
 <Sx>= 0.0000 <Sy>= 0.0000 <Sz>= 0.5000 <S**2>= 0.7536 S= 0.5018
 <L.S>= 0.000000000000E+00
 KE= 4.067450020205D+01 PE=-1.206117179605D+02 EE= 2.578171191034D+01
 Annihilation of the first spin contaminant:
 S**2 before annihilation     0.7536,   after     0.7500
 Leave Link  502 at Wed Nov  3 01:52:27 2010, MaxMem=  786432000 cpu:     255.9
 (Enter /share/apps/G09A02/g09/l601.exe)
 Copying SCF densities to generalized density rwf, IOpCl= 1 IROHF=0.

 **********************************************************************

            Population analysis using the SCF density.

 **********************************************************************

 Alpha  occ. eigenvalues --  -10.14735  -0.85416  -0.56399  -0.55892  -0.55892
 Alpha  occ. eigenvalues --   -0.36620
 Alpha virt. eigenvalues --    0.06900   0.09211   0.09211   0.12777   0.16374
 Alpha virt. eigenvalues --    0.23379   0.23379   0.24225   0.36194   0.38626
 Alpha virt. eigenvalues --    0.38626   0.40341   0.40341   0.48048   0.62431
 Alpha virt. eigenvalues --    0.62893   0.62893   0.64540   0.66169   0.66169
 Alpha virt. eigenvalues --    0.72030   0.80696   0.82522   0.82523   0.94752
 Alpha virt. eigenvalues --    1.00338   1.00339   1.03071   1.14346   1.14347
 Alpha virt. eigenvalues --    1.19181   1.19182   1.24195   1.47662   1.49039
 Alpha virt. eigenvalues --    1.49039   1.63480   1.78674   1.78674   2.12046
 Alpha virt. eigenvalues --    2.14641   2.14641   2.43091   2.55467   2.58526
 Alpha virt. eigenvalues --    2.77284   2.77284   2.84438   3.05607   3.12646
 Alpha virt. eigenvalues --    3.12646   3.16087   3.20828   3.20828   3.55709
 Alpha virt. eigenvalues --    3.55709   3.72328   3.72328   3.89400   4.02713
 Alpha virt. eigenvalues --    4.27838   4.27839   4.34065   4.34065   4.37647
 Alpha virt. eigenvalues --    4.38433   4.38433   4.96560   5.35046   5.72978
 Alpha virt. eigenvalues --    5.72978   5.76162   7.15185   7.15186   7.29375
 Alpha virt. eigenvalues --    7.72676   7.72676  24.22771
  Beta  occ. eigenvalues --  -10.13315  -0.80815  -0.56177  -0.54830  -0.54830
  Beta virt. eigenvalues --    0.01528   0.06856   0.09048   0.09048   0.14445
  Beta virt. eigenvalues --    0.17708   0.23615   0.23615   0.25181   0.36558
  Beta virt. eigenvalues --    0.39789   0.39789   0.40350   0.40351   0.49737
  Beta virt. eigenvalues --    0.62710   0.63053   0.63054   0.66903   0.66903
  Beta virt. eigenvalues --    0.68135   0.72377   0.81613   0.82510   0.82511
  Beta virt. eigenvalues --    0.94716   1.00831   1.00831   1.03900   1.14465
  Beta virt. eigenvalues --    1.14465   1.19193   1.19193   1.24728   1.49563
  Beta virt. eigenvalues --    1.49563   1.50333   1.63584   1.83489   1.83489
  Beta virt. eigenvalues --    2.15162   2.15626   2.15626   2.43696   2.55690
  Beta virt. eigenvalues --    2.58514   2.78562   2.78562   2.90029   3.06007
  Beta virt. eigenvalues --    3.15591   3.15591   3.20444   3.24211   3.24212
  Beta virt. eigenvalues --    3.55817   3.55817   3.73235   3.73235   3.89686
  Beta virt. eigenvalues --    4.03100   4.27475   4.27475   4.34548   4.34548
  Beta virt. eigenvalues --    4.38325   4.38803   4.38803   4.96725   5.36004
  Beta virt. eigenvalues --    5.73567   5.73567   5.76239   7.21500   7.21502
  Beta virt. eigenvalues --    7.37387   7.74293   7.74294  24.24639
          Condensed to atoms (all electrons):
              1          2          3          4          5          6
     1  C    5.378935  -0.004578   0.401720   0.401721   0.401721  -0.007680
     2  H   -0.004578   0.586917  -0.000032  -0.000032  -0.000032   0.422693
     3  H    0.401720  -0.000032   0.447487  -0.020850  -0.020850  -0.000008
     4  H    0.401721  -0.000032  -0.020850   0.447486  -0.020850  -0.000008
     5  H    0.401721  -0.000032  -0.020850  -0.020850   0.447486  -0.000008
     6  H   -0.007680   0.422693  -0.000008  -0.000008  -0.000008   0.585841
 Mulliken atomic charges:
              1
     1  C   -0.571839
     2  H   -0.004934
     3  H    0.192534
     4  H    0.192534
     5  H    0.192534
     6  H   -0.000829
 Sum of Mulliken atomic charges =   0.00000
 Mulliken charges with hydrogens summed into heavy atoms:
              1
     1  C    0.000000
 Sum of Mulliken charges with hydrogens summed into heavy atoms =   0.00000
          Atomic-Atomic Spin Densities.
              1          2          3          4          5          6
     1  C    1.059952  -0.001239   0.005001   0.005000   0.005000  -0.006057
     2  H   -0.001239  -0.007292  -0.000014  -0.000014  -0.000014   0.000796
     3  H    0.005001  -0.000014  -0.034515   0.002917   0.002917  -0.000027
     4  H    0.005000  -0.000014   0.002917  -0.034515   0.002917  -0.000027
     5  H    0.005000  -0.000014   0.002917   0.002917  -0.034515  -0.000027
     6  H   -0.006057   0.000796  -0.000027  -0.000027  -0.000027   0.016627
 Mulliken atomic spin densities:
              1
     1  C    1.067656
     2  H   -0.007776
     3  H   -0.023721
     4  H   -0.023722
     5  H   -0.023722
     6  H    0.011285
 Sum of Mulliken atomic spin densities =   1.00000
 Electronic spatial extent (au):  <R**2>=            112.3251
 Charge=              0.0000 electrons
 Dipole moment (field-independent basis, Debye):
    X=              0.0000    Y=              0.0000    Z=             -0.0724  Tot=              0.0724
 Quadrupole moment (field-independent basis, Debye-Ang):
   XX=             -9.4627   YY=             -9.4627   ZZ=            -11.0431
   XY=              0.0000   XZ=              0.0000   YZ=              0.0000
 Traceless Quadrupole moment (field-independent basis, Debye-Ang):
   XX=              0.5268   YY=              0.5268   ZZ=             -1.0536
   XY=              0.0000   XZ=              0.0000   YZ=              0.0000
 Octapole moment (field-independent basis, Debye-Ang**2):
  XXX=              0.9818  YYY=              0.0000  ZZZ=            -16.6558  XYY=             -0.9818
  XXY=              0.0000  XXZ=             -7.1355  XZZ=              0.0000  YZZ=              0.0000
  YYZ=             -7.1355  XYZ=              0.0000
 Hexadecapole moment (field-independent basis, Debye-Ang**3):
 XXXX=            -17.6215 YYYY=            -17.6214 ZZZZ=           -121.9742 XXXY=              0.0000
 XXXZ=             -0.0072 YYYX=              0.0000 YYYZ=              0.0000 ZZZX=              0.0000
 ZZZY=              0.0000 XXYY=             -5.8738 XXZZ=            -29.3497 YYZZ=            -29.3497
 XXYZ=              0.0000 YYXZ=              0.0072 ZZXY=              0.0000
 N-N= 1.328025252290D+01 E-N=-1.778152501753D+02  KE= 6.040687766127D+01
                          Isotropic Fermi Contact Couplings
        Atom                 a.u.       MegaHertz       Gauss      10(-4) cm-1
     1  C(13)              0.02880      32.37214      11.55119      10.79818
     2  H(1)              -0.00071      -3.16690      -1.13003      -1.05637
     3  H(1)              -0.01320     -59.01805     -21.05911     -19.68630
     4  H(1)              -0.01320     -59.01844     -21.05924     -19.68643
     5  H(1)              -0.01320     -59.01844     -21.05924     -19.68643
     6  H(1)               0.00434      19.40012       6.92244       6.47118
 --------------------------------------------------------
       Center         ----  Spin Dipole Couplings  ----
                      3XX-RR        3YY-RR        3ZZ-RR
 --------------------------------------------------------
     1   Atom       -0.592516     -0.592518      1.185035
     2   Atom       -0.009886     -0.009886      0.019771
     3   Atom        0.074292     -0.075289      0.000997
     4   Atom       -0.037894      0.036897      0.000997
     5   Atom       -0.037894      0.036897      0.000997
     6   Atom       -0.003487     -0.003487      0.006973
 --------------------------------------------------------
                        XY            XZ            YZ
 --------------------------------------------------------
     1   Atom        0.000000      0.000000      0.000000
     2   Atom        0.000000      0.000000      0.000000
     3   Atom        0.000000     -0.000282      0.000000
     4   Atom        0.064770      0.000141      0.000244
     5   Atom       -0.064770      0.000141     -0.000244
     6   Atom        0.000000      0.000000      0.000000
 --------------------------------------------------------


 ---------------------------------------------------------------------------------
              Anisotropic Spin Dipole Couplings in Principal Axis System
 ---------------------------------------------------------------------------------

       Atom             a.u.   MegaHertz   Gauss  10(-4) cm-1        Axes

              Baa    -0.5925   -79.510   -28.371   -26.522  0.0000  1.0000  0.0000
     1 C(13)  Bbb    -0.5925   -79.510   -28.371   -26.522  1.0000  0.0000  0.0000
              Bcc     1.1850   159.020    56.742    53.043  0.0000  0.0000  1.0000
 
              Baa    -0.0099    -5.274    -1.882    -1.759  1.0000  0.0000  0.0000
     2 H(1)   Bbb    -0.0099    -5.274    -1.882    -1.759  0.0000  1.0000  0.0000
              Bcc     0.0198    10.549     3.764     3.519  0.0000  0.0000  1.0000
 
              Baa    -0.0753   -40.171   -14.334   -13.399  0.0000  1.0000  0.0000
     3 H(1)   Bbb     0.0010     0.531     0.190     0.177  0.0038  0.0000  1.0000
              Bcc     0.0743    39.639    14.144    13.222  1.0000  0.0000 -0.0038
 
              Baa    -0.0753   -40.171   -14.334   -13.399  0.8660 -0.5000  0.0000
     4 H(1)   Bbb     0.0010     0.531     0.190     0.177 -0.0019 -0.0033  1.0000
              Bcc     0.0743    39.639    14.144    13.222  0.5000  0.8660  0.0038
 
              Baa    -0.0753   -40.171   -14.334   -13.399  0.8660  0.5000  0.0000
     5 H(1)   Bbb     0.0010     0.531     0.190     0.177 -0.0019  0.0033  1.0000
              Bcc     0.0743    39.639    14.144    13.222 -0.5000  0.8660 -0.0038
 
              Baa    -0.0035    -1.860    -0.664    -0.621  1.0000  0.0000  0.0000
     6 H(1)   Bbb    -0.0035    -1.860    -0.664    -0.621  0.0000  1.0000  0.0000
              Bcc     0.0070     3.721     1.328     1.241  0.0000  0.0000  1.0000
 

 ---------------------------------------------------------------------------------

 No NMR shielding tensors so no spin-rotation constants.
 Leave Link  601 at Wed Nov  3 01:52:27 2010, MaxMem=  786432000 cpu:       3.8
 (Enter /share/apps/G09A02/g09/l9999.exe)
 1\1\GINC-COMPUTE-0-7\SP\ULC-BLYP\6-311+G(3df,2p)\C1H5(2)\WENXINZY\03-N
 ov-2010\0\\#p lc-blyp/6-311+g(3df,2p) nosymm scf=tight\\29 H2+CH3\\0,2
 \C\H,1,2.9025792\H,1,1.0792449,2,90.2181242\H,1,1.0792449,2,90.2181242
 ,3,120.,0\H,1,1.0792449,2,90.2181242,3,-120.,0\H,2,0.7437446,1,180.,3,
 0.,0\\Version=EM64L-G09RevA.02\HF=-40.8752533\S2=0.753578\S2-1=0.\S2A=
 0.750007\RMSD=8.751e-09\Dipole=0.0000001,0.,-0.0284888\Quadrupole=0.39
 16486,0.391651,-0.7832997,0.,0.0000057,0.\PG=C03V [C3(H1H1C1),3SGV(H1)
 ]\\@


 CONFIDENCE IS WHAT YOU FEEL BEFORE YOU FULLY
 COMPREHEND THE SITUATION.
 Job cpu time:  0 days  0 hours  4 minutes 30.3 seconds.
 File lengths (MBytes):  RWF=      9 Int=      0 D2E=      0 Chk=      1 Scr=      1
 Normal termination of Gaussian 09 at Wed Nov  3 01:52:27 2010.
