 Entering Gaussian System, Link 0=/share/apps/G09A02/g09/g09
 Input=./.script12553/Job_H2_CH3_7.com
 Output=./.script12553/Job_H2_CH3_7.log
 Initial command:
 /share/apps/G09A02/g09/l1.exe /state/partition1/wenxinzy/scratch/Gau-18265.inp -scrdir=/state/partition1/wenxinzy/scratch/
 Default is to use a total of   8 processors:
                                8 via shared-memory
                                1 via Linda
 Entering Link 1 = /share/apps/G09A02/g09/l1.exe PID=     18266.
  
 Copyright (c) 1988,1990,1992,1993,1995,1998,2003,2009, Gaussian, Inc.
                  All Rights Reserved.
  
 This is part of the Gaussian(R) 09 program.  It is based on
 the Gaussian(R) 03 system (copyright 2003, Gaussian, Inc.),
 the Gaussian(R) 98 system (copyright 1998, Gaussian, Inc.),
 the Gaussian(R) 94 system (copyright 1995, Gaussian, Inc.),
 the Gaussian 92(TM) system (copyright 1992, Gaussian, Inc.),
 the Gaussian 90(TM) system (copyright 1990, Gaussian, Inc.),
 the Gaussian 88(TM) system (copyright 1988, Gaussian, Inc.),
 the Gaussian 86(TM) system (copyright 1986, Carnegie Mellon
 University), and the Gaussian 82(TM) system (copyright 1983,
 Carnegie Mellon University). Gaussian is a federally registered
 trademark of Gaussian, Inc.
  
 This software contains proprietary and confidential information,
 including trade secrets, belonging to Gaussian, Inc.
  
 This software is provided under written license and may be
 used, copied, transmitted, or stored only in accord with that
 written license.
  
 The following legend is applicable only to US Government
 contracts under FAR:
  
                    RESTRICTED RIGHTS LEGEND
  
 Use, reproduction and disclosure by the US Government is
 subject to restrictions as set forth in subparagraphs (a)
 and (c) of the Commercial Computer Software - Restricted
 Rights clause in FAR 52.227-19.
  
 Gaussian, Inc.
 340 Quinnipiac St., Bldg. 40, Wallingford CT 06492
  
  
 ---------------------------------------------------------------
 Warning -- This program may not be used in any manner that
 competes with the business of Gaussian, Inc. or will provide
 assistance to any competitor of Gaussian, Inc.  The licensee
 of this program is prohibited from giving any competitor of
 Gaussian, Inc. access to this program.  By using this program,
 the user acknowledges that Gaussian, Inc. is engaged in the
 business of creating and licensing software in the field of
 computational chemistry and represents and warrants to the
 licensee that it is not a competitor of Gaussian, Inc. and that
 it will not use this program in any manner prohibited above.
 ---------------------------------------------------------------
  

 Cite this work as:
 Gaussian 09, Revision A.02,
 M. J. Frisch, G. W. Trucks, H. B. Schlegel, G. E. Scuseria, 
 M. A. Robb, J. R. Cheeseman, G. Scalmani, V. Barone, B. Mennucci, 
 G. A. Petersson, H. Nakatsuji, M. Caricato, X. Li, H. P. Hratchian, 
 A. F. Izmaylov, J. Bloino, G. Zheng, J. L. Sonnenberg, M. Hada, 
 M. Ehara, K. Toyota, R. Fukuda, J. Hasegawa, M. Ishida, T. Nakajima, 
 Y. Honda, O. Kitao, H. Nakai, T. Vreven, J. A. Montgomery, Jr., 
 J. E. Peralta, F. Ogliaro, M. Bearpark, J. J. Heyd, E. Brothers, 
 K. N. Kudin, V. N. Staroverov, R. Kobayashi, J. Normand, 
 K. Raghavachari, A. Rendell, J. C. Burant, S. S. Iyengar, J. Tomasi, 
 M. Cossi, N. Rega, J. M. Millam, M. Klene, J. E. Knox, J. B. Cross, 
 V. Bakken, C. Adamo, J. Jaramillo, R. Gomperts, R. E. Stratmann, 
 O. Yazyev, A. J. Austin, R. Cammi, C. Pomelli, J. W. Ochterski, 
 R. L. Martin, K. Morokuma, V. G. Zakrzewski, G. A. Voth, 
 P. Salvador, J. J. Dannenberg, S. Dapprich, A. D. Daniels, 
 O. Farkas, J. B. Foresman, J. V. Ortiz, J. Cioslowski, 
 and D. J. Fox, Gaussian, Inc., Wallingford CT, 2009.
 
 ******************************************
 Gaussian 09:  EM64L-G09RevA.02 11-Jun-2009
                 3-Nov-2010 
 ******************************************
 %chk=/state/partition1/wenxinzy/scratch/H2_CH3_7.chk
 %nproc=8
 Will use up to    8 processors via shared memory.
 %mem=6000mb
 -------------------------------------------
 #p lc-blyp/6-311+g(3df,2p) nosymm scf=tight
 -------------------------------------------
 1/38=1/1;
 2/12=2,15=1,17=6,18=5,40=1/2;
 3/5=4,6=6,7=216,11=2,16=1,25=1,30=1,74=1000402/1,2,3;
 4//1;
 5/5=2,32=2,38=5/2;
 6/7=2,8=2,9=2,10=2,28=1/1;
 99/5=1,9=1/99;
 Leave Link    1 at Wed Nov  3 01:39:18 2010, MaxMem=  786432000 cpu:       0.4
 (Enter /share/apps/G09A02/g09/l101.exe)
 --------
 8 H2+CH3
 --------
 Symbolic Z-matrix:
 Charge =  0 Multiplicity = 2
 C
 H1                   C    R1
 H2                   C    R2       H1   A1
 H3                   C    R2       H1   A1       H2    120.     0
 H4                   C    R2       H1   A1       H2   -120.     0
 H5                   H1   R3       C     180.     H2    0.       0
       Variables:
  R1                    1.75448                  
  R2                    1.08071                  
  A1                   96.64236                  
  R3                    0.77453                  
 
 NAtoms=      6 NQM=      6 NQMF=      0 NMic=      0 NMicF=      0 NTot=      6.
                    Isotopes and Nuclear Properties:
 (Nuclear quadrupole moments (NQMom) in fm**2, nuclear magnetic moments (NMagM)
  in nuclear magnetons)

  Atom         1           2           3           4           5           6
 IAtWgt=          12           1           1           1           1           1
 AtmWgt=  12.0000000   1.0078250   1.0078250   1.0078250   1.0078250   1.0078250
 NucSpn=           0           1           1           1           1           1
 AtZEff=   0.0000000   0.0000000   0.0000000   0.0000000   0.0000000   0.0000000
 NQMom=    0.0000000   0.0000000   0.0000000   0.0000000   0.0000000   0.0000000
 NMagM=    0.0000000   2.7928460   2.7928460   2.7928460   2.7928460   2.7928460
 Leave Link  101 at Wed Nov  3 01:39:18 2010, MaxMem=  786432000 cpu:       1.0
 (Enter /share/apps/G09A02/g09/l202.exe)
                          Input orientation:                          
 ---------------------------------------------------------------------
 Center     Atomic      Atomic             Coordinates (Angstroms)
 Number     Number       Type             X           Y           Z
 ---------------------------------------------------------------------
      1          6           0        0.000000    0.000000    0.000000
      2          1           0        0.000000    0.000000    1.754478
      3          1           0        1.073453    0.000000   -0.125007
      4          1           0       -0.536727   -0.929638   -0.125007
      5          1           0       -0.536727    0.929638   -0.125007
      6          1           0        0.000000    0.000000    2.529005
 ---------------------------------------------------------------------
                    Distance matrix (angstroms):
                    1          2          3          4          5
     1  C    0.000000
     2  H    1.754478   0.000000
     3  H    1.080707   2.164432   0.000000
     4  H    1.080707   2.164432   1.859275   0.000000
     5  H    1.080707   2.164432   1.859275   1.859275   0.000000
     6  H    2.529005   0.774527   2.862880   2.862880   2.862880
                    6
     6  H    0.000000
 Symmetry turned off by external request.
 Stoichiometry    CH5(2)
 Framework group  C3V[C3(HHC),3SGV(H)]
 Deg. of freedom     4
 Full point group                 C3V     NOp   6
 Rotational constants (GHZ):    145.0589730     48.4692151     48.4692151
 Leave Link  202 at Wed Nov  3 01:39:18 2010, MaxMem=  786432000 cpu:       0.1
 (Enter /share/apps/G09A02/g09/l301.exe)
 Standard basis: 6-311+G(3df,2p) (5D, 7F)
 Ernie: Thresh=  0.10000D-02 Tol=  0.10000D-05 Strict=F.
 Integral buffers will be    131072 words long.
 Raffenetti 2 integral format.
 Two-electron integral symmetry is turned off.
    84 basis functions,   113 primitive gaussians,    90 cartesian basis functions
     6 alpha electrons        5 beta electrons
       nuclear repulsion energy        14.7040541056 Hartrees.
 IExCor=10402 DFT=T Ex=LC-B+HF Corr=LYP ExCW=0 ScaHFX=  1.000000
 ScaDFX=  1.000000  1.000000  1.000000  1.000000 ScalE2=  1.000000  1.000000
 IRadAn=      0 IRanWt=     -1 IRanGd=            0 ICorTp=0
  HFx wShort=  0.000000 wLong=  0.470000 cFull=  0.000000 cShort=  0.000000 cLong=  1.000000
  DFx wShort=  0.000000 wLong=  0.470000 cFull=  0.000000 cShort=  0.000000 cLong=  1.000000
 NAtoms=    6 NActive=    6 NUniq=    6 SFac= 7.50D-01 NAtFMM=   80 NAOKFM=F Big=F
 Leave Link  301 at Wed Nov  3 01:39:18 2010, MaxMem=  786432000 cpu:       0.6
 (Enter /share/apps/G09A02/g09/l302.exe)
 NPDir=0 NMtPBC=     1 NCelOv=     1 NCel=       1 NClECP=     1 NCelD=      1
         NCelK=      1 NCelE2=     1 NClLst=     1 CellRange=     0.0.
 One-electron integrals computed using PRISM.
 NBasis=    84 RedAO= T  NBF=    84
 NBsUse=    84 1.00D-06 NBFU=    84
 Precomputing XC quadrature grid using
 IXCGrd= 2 IRadAn=           0 IRanWt=          -1 IRanGd=           0 AccXCQ= 1.00D-10.
 NRdTot=     383 NPtTot=       48302 NUsed=       51074 NTot=       51106
 NSgBfM=    90    90    90    90    90 NAtAll=     6     6.
 Leave Link  302 at Wed Nov  3 01:39:19 2010, MaxMem=  786432000 cpu:       2.6
 (Enter /share/apps/G09A02/g09/l303.exe)
 DipDrv:  MaxL=1.
 Leave Link  303 at Wed Nov  3 01:39:19 2010, MaxMem=  786432000 cpu:       0.9
 (Enter /share/apps/G09A02/g09/l401.exe)
 Harris functional with IExCor=10402 diagonalized for initial guess.
 ExpMin= 4.38D-02 ExpMax= 4.56D+03 ExpMxC= 6.82D+02 IAcc=2 IRadAn=         0 AccDes= 0.00D+00
 HarFok:  IExCor=10402 AccDes= 0.00D+00 IRadAn=         0 IDoV= 1
 ScaDFX=  1.000000  1.000000  1.000000  1.000000
 FoFCou: FMM=F IPFlag=           0 FMFlag=      100000 FMFlg1=           0
         NFxFlg=           0 DoJE=T BraDBF=F KetDBF=T FulRan=T
         Omega=  0.000000  0.000000  1.000000  0.000000  0.000000 ICntrl=     500 IOpCl=  0
         NMat0=    1 NMatS0=    1 NMatT0=    0 NMatD0=    1 NMtDS0=    0 NMtDT0=    0
         I1Cent=           4 NGrid=           0.
 Symmetry not used in FoFCou.
 Harris En= -38.5288809760691    
 Initial guess <Sx>= 0.0000 <Sy>= 0.0000 <Sz>= 0.5000 <S**2>= 0.7500 S= 0.5000
 Leave Link  401 at Wed Nov  3 01:39:19 2010, MaxMem=  786432000 cpu:       3.7
 (Enter /share/apps/G09A02/g09/l502.exe)
 UHF open shell SCF:
 Requested convergence on RMS density matrix=1.00D-08 within 128 cycles.
 Requested convergence on MAX density matrix=1.00D-06.
 Requested convergence on             energy=1.00D-06.
 No special actions if energy rises.
 Using DIIS extrapolation, IDIIS=  1040.
 Two-electron integral symmetry not used.
        51007 words used for storage of precomputed grid.
 IEnd=       94725 IEndB=       94725 NGot=   786432000 MDV=   786362106
 LenX=   786362106 LenY=   786353565
 Fock matrices will be formed incrementally for  20 cycles.

 Cycle   1  Pass 1  IDiag  1:
 FoFJK:  IHMeth= 1 ICntrl=     0 DoSepK=T KAlg= 1 I1Cent= 0 FoldK=F
 FoFCou: FMM=F IPFlag=           0 FMFlag=      100000 FMFlg1=           0
         NFxFlg=           0 DoJE=T BraDBF=F KetDBF=F FulRan=T
         Omega=  0.000000  0.000000  1.000000  0.000000  0.000000 ICntrl=     500 IOpCl=  0
         NMat0=    1 NMatS0=    1 NMatT0=    0 NMatD0=    1 NMtDS0=    0 NMtDT0=    0
         I1Cent=           0 NGrid=           0.
 Symmetry not used in FoFCou.
 E= -40.8399239799277    
 DIIS: error= 1.84D-02 at cycle   1 NSaved=   1.
 NSaved= 1 IEnMin= 1 EnMin= -40.8399239799277     IErMin= 1 ErrMin= 1.84D-02
 ErrMax= 1.84D-02 EMaxC= 1.00D-01 BMatC= 8.15D-02 BMatP= 8.15D-02
 IDIUse=3 WtCom= 8.16D-01 WtEn= 1.84D-01
 Coeff-Com:  0.100D+01
 Coeff-En:   0.100D+01
 Coeff:      0.100D+01
 Gap=     0.367 Goal=   None    Shift=    0.000
 Gap=     0.594 Goal=   None    Shift=    0.000
 GapD=    0.367 DampG=1.000 DampE=0.500 DampFc=0.5000 IDamp=-1.
 Damping current iteration by 5.00D-01
 RMSDP=2.42D-03 MaxDP=7.07D-02              OVMax= 8.61D-02

 Cycle   2  Pass 1  IDiag  1:
 RMSU=  9.80D-04    CP:  9.62D-01
 FoFJK:  IHMeth= 1 ICntrl=     0 DoSepK=T KAlg= 1 I1Cent= 0 FoldK=F
 E= -40.8522722155238     Delta-E=       -0.012348235596 Rises=F Damp=T
 DIIS: error= 7.78D-03 at cycle   2 NSaved=   2.
 NSaved= 2 IEnMin= 2 EnMin= -40.8522722155238     IErMin= 2 ErrMin= 7.78D-03
 ErrMax= 7.78D-03 EMaxC= 1.00D-01 BMatC= 1.09D-02 BMatP= 8.15D-02
 IDIUse=3 WtCom= 9.22D-01 WtEn= 7.78D-02
 Coeff-Com: -0.328D+00 0.133D+01
 Coeff-En:   0.000D+00 0.100D+01
 Coeff:     -0.303D+00 0.130D+01
 Gap=     0.411 Goal=   None    Shift=    0.000
 Gap=     0.565 Goal=   None    Shift=    0.000
 RMSDP=1.85D-03 MaxDP=6.46D-02 DE=-1.23D-02 OVMax= 4.79D-02

 Cycle   3  Pass 1  IDiag  1:
 RMSU=  8.82D-04    CP:  9.18D-01  2.31D+00
 FoFJK:  IHMeth= 1 ICntrl=     0 DoSepK=T KAlg= 1 I1Cent= 0 FoldK=F
 E= -40.8656929111459     Delta-E=       -0.013420695622 Rises=F Damp=F
 DIIS: error= 2.67D-03 at cycle   3 NSaved=   3.
 NSaved= 3 IEnMin= 3 EnMin= -40.8656929111459     IErMin= 3 ErrMin= 2.67D-03
 ErrMax= 2.67D-03 EMaxC= 1.00D-01 BMatC= 9.33D-04 BMatP= 1.09D-02
 IDIUse=3 WtCom= 9.73D-01 WtEn= 2.67D-02
 Coeff-Com: -0.235D-01-0.180D+00 0.120D+01
 Coeff-En:   0.000D+00 0.000D+00 0.100D+01
 Coeff:     -0.229D-01-0.175D+00 0.120D+01
 Gap=     0.413 Goal=   None    Shift=    0.000
 Gap=     0.558 Goal=   None    Shift=    0.000
 RMSDP=6.27D-04 MaxDP=1.71D-02 DE=-1.34D-02 OVMax= 2.38D-02

 Cycle   4  Pass 1  IDiag  1:
 RMSU=  1.72D-04    CP:  9.02D-01  2.70D+00  1.36D+00
 FoFJK:  IHMeth= 1 ICntrl=     0 DoSepK=T KAlg= 1 I1Cent= 0 FoldK=F
 E= -40.8664868456926     Delta-E=       -0.000793934547 Rises=F Damp=F
 DIIS: error= 1.12D-03 at cycle   4 NSaved=   4.
 NSaved= 4 IEnMin= 4 EnMin= -40.8664868456926     IErMin= 4 ErrMin= 1.12D-03
 ErrMax= 1.12D-03 EMaxC= 1.00D-01 BMatC= 7.99D-05 BMatP= 9.33D-04
 IDIUse=3 WtCom= 9.89D-01 WtEn= 1.12D-02
 Coeff-Com:  0.129D-01-0.338D-01-0.263D+00 0.128D+01
 Coeff-En:   0.000D+00 0.000D+00 0.000D+00 0.100D+01
 Coeff:      0.127D-01-0.334D-01-0.260D+00 0.128D+01
 Gap=     0.416 Goal=   None    Shift=    0.000
 Gap=     0.561 Goal=   None    Shift=    0.000
 RMSDP=1.95D-04 MaxDP=4.97D-03 DE=-7.94D-04 OVMax= 9.40D-03

 Cycle   5  Pass 1  IDiag  1:
 RMSU=  2.86D-05    CP:  8.98D-01  2.80D+00  1.48D+00  1.45D+00
 FoFJK:  IHMeth= 1 ICntrl=     0 DoSepK=T KAlg= 1 I1Cent= 0 FoldK=F
 E= -40.8665725324922     Delta-E=       -0.000085686800 Rises=F Damp=F
 DIIS: error= 2.16D-04 at cycle   5 NSaved=   5.
 NSaved= 5 IEnMin= 5 EnMin= -40.8665725324922     IErMin= 5 ErrMin= 2.16D-04
 ErrMax= 2.16D-04 EMaxC= 1.00D-01 BMatC= 6.11D-06 BMatP= 7.99D-05
 IDIUse=3 WtCom= 9.98D-01 WtEn= 2.16D-03
 Coeff-Com: -0.138D-02 0.186D-01-0.122D-01-0.283D+00 0.128D+01
 Coeff-En:   0.000D+00 0.000D+00 0.000D+00 0.000D+00 0.100D+01
 Coeff:     -0.137D-02 0.186D-01-0.122D-01-0.282D+00 0.128D+01
 Gap=     0.416 Goal=   None    Shift=    0.000
 Gap=     0.561 Goal=   None    Shift=    0.000
 RMSDP=3.09D-05 MaxDP=7.82D-04 DE=-8.57D-05 OVMax= 1.95D-03

 Cycle   6  Pass 1  IDiag  1:
 RMSU=  8.32D-06    CP:  8.97D-01  2.80D+00  1.49D+00  1.53D+00  1.62D+00
 FoFJK:  IHMeth= 1 ICntrl=     0 DoSepK=T KAlg= 1 I1Cent= 0 FoldK=F
 E= -40.8665784989289     Delta-E=       -0.000005966437 Rises=F Damp=F
 DIIS: error= 7.03D-05 at cycle   6 NSaved=   6.
 NSaved= 6 IEnMin= 6 EnMin= -40.8665784989289     IErMin= 6 ErrMin= 7.03D-05
 ErrMax= 7.03D-05 EMaxC= 1.00D-01 BMatC= 7.26D-07 BMatP= 6.11D-06
 IDIUse=1 WtCom= 1.00D+00 WtEn= 0.00D+00
 Coeff-Com: -0.100D-02 0.115D-02 0.274D-01-0.864D-01-0.195D+00 0.125D+01
 Coeff:     -0.100D-02 0.115D-02 0.274D-01-0.864D-01-0.195D+00 0.125D+01
 Gap=     0.416 Goal=   None    Shift=    0.000
 Gap=     0.561 Goal=   None    Shift=    0.000
 RMSDP=1.10D-05 MaxDP=2.26D-04 DE=-5.97D-06 OVMax= 4.88D-04

 Cycle   7  Pass 1  IDiag  1:
 RMSU=  3.36D-06    CP:  8.97D-01  2.80D+00  1.49D+00  1.54D+00  1.85D+00
                    CP:  1.52D+00
 FoFJK:  IHMeth= 1 ICntrl=     0 DoSepK=T KAlg= 1 I1Cent= 0 FoldK=F
 E= -40.8665791798103     Delta-E=       -0.000000680881 Rises=F Damp=F
 DIIS: error= 2.29D-05 at cycle   7 NSaved=   7.
 NSaved= 7 IEnMin= 7 EnMin= -40.8665791798103     IErMin= 7 ErrMin= 2.29D-05
 ErrMax= 2.29D-05 EMaxC= 1.00D-01 BMatC= 7.22D-08 BMatP= 7.26D-07
 IDIUse=1 WtCom= 1.00D+00 WtEn= 0.00D+00
 Coeff-Com:  0.221D-03-0.201D-02-0.730D-02 0.575D-01-0.621D-01-0.455D+00
 Coeff-Com:  0.147D+01
 Coeff:      0.221D-03-0.201D-02-0.730D-02 0.575D-01-0.621D-01-0.455D+00
 Coeff:      0.147D+01
 Gap=     0.416 Goal=   None    Shift=    0.000
 Gap=     0.561 Goal=   None    Shift=    0.000
 RMSDP=4.02D-06 MaxDP=8.13D-05 DE=-6.81D-07 OVMax= 1.76D-04

 Cycle   8  Pass 1  IDiag  1:
 RMSU=  6.69D-07    CP:  8.97D-01  2.80D+00  1.49D+00  1.54D+00  1.90D+00
                    CP:  1.75D+00  1.67D+00
 FoFJK:  IHMeth= 1 ICntrl=     0 DoSepK=T KAlg= 1 I1Cent= 0 FoldK=F
 E= -40.8665792526588     Delta-E=       -0.000000072849 Rises=F Damp=F
 DIIS: error= 5.93D-06 at cycle   8 NSaved=   8.
 NSaved= 8 IEnMin= 8 EnMin= -40.8665792526588     IErMin= 8 ErrMin= 5.93D-06
 ErrMax= 5.93D-06 EMaxC= 1.00D-01 BMatC= 2.89D-09 BMatP= 7.22D-08
 IDIUse=1 WtCom= 1.00D+00 WtEn= 0.00D+00
 Coeff-Com:  0.279D-04 0.485D-03 0.149D-02-0.153D-01 0.307D-01 0.924D-01
 Coeff-Com: -0.501D+00 0.139D+01
 Coeff:      0.279D-04 0.485D-03 0.149D-02-0.153D-01 0.307D-01 0.924D-01
 Coeff:     -0.501D+00 0.139D+01
 Gap=     0.416 Goal=   None    Shift=    0.000
 Gap=     0.561 Goal=   None    Shift=    0.000
 RMSDP=8.23D-07 MaxDP=2.01D-05 DE=-7.28D-08 OVMax= 4.48D-05

 Cycle   9  Pass 1  IDiag  1:
 RMSU=  2.06D-07    CP:  8.97D-01  2.80D+00  1.49D+00  1.54D+00  1.90D+00
                    CP:  1.77D+00  1.78D+00  1.61D+00
 FoFJK:  IHMeth= 1 ICntrl=     0 DoSepK=T KAlg= 1 I1Cent= 0 FoldK=F
 E= -40.8665792557116     Delta-E=       -0.000000003053 Rises=F Damp=F
 DIIS: error= 1.80D-06 at cycle   9 NSaved=   9.
 NSaved= 9 IEnMin= 9 EnMin= -40.8665792557116     IErMin= 9 ErrMin= 1.80D-06
 ErrMax= 1.80D-06 EMaxC= 1.00D-01 BMatC= 2.53D-10 BMatP= 2.89D-09
 IDIUse=1 WtCom= 1.00D+00 WtEn= 0.00D+00
 Coeff-Com: -0.312D-04-0.154D-03-0.573D-03 0.582D-02-0.140D-01-0.261D-01
 Coeff-Com:  0.187D+00-0.743D+00 0.159D+01
 Coeff:     -0.312D-04-0.154D-03-0.573D-03 0.582D-02-0.140D-01-0.261D-01
 Coeff:      0.187D+00-0.743D+00 0.159D+01
 Gap=     0.416 Goal=   None    Shift=    0.000
 Gap=     0.561 Goal=   None    Shift=    0.000
 RMSDP=3.29D-07 MaxDP=1.03D-05 DE=-3.05D-09 OVMax= 1.95D-05

 Cycle  10  Pass 1  IDiag  1:
 RMSU=  8.52D-08    CP:  8.97D-01  2.80D+00  1.49D+00  1.54D+00  1.91D+00
                    CP:  1.77D+00  1.80D+00  1.77D+00  1.73D+00
 FoFJK:  IHMeth= 1 ICntrl=     0 DoSepK=T KAlg= 1 I1Cent= 0 FoldK=F
 E= -40.8665792560584     Delta-E=       -0.000000000347 Rises=F Damp=F
 DIIS: error= 4.67D-07 at cycle  10 NSaved=  10.
 NSaved=10 IEnMin=10 EnMin= -40.8665792560584     IErMin=10 ErrMin= 4.67D-07
 ErrMax= 4.67D-07 EMaxC= 1.00D-01 BMatC= 2.14D-11 BMatP= 2.53D-10
 IDIUse=1 WtCom= 1.00D+00 WtEn= 0.00D+00
 Coeff-Com:  0.752D-05 0.382D-04 0.159D-03-0.134D-02 0.367D-02 0.337D-02
 Coeff-Com: -0.371D-01 0.177D+00-0.610D+00 0.146D+01
 Coeff:      0.752D-05 0.382D-04 0.159D-03-0.134D-02 0.367D-02 0.337D-02
 Coeff:     -0.371D-01 0.177D+00-0.610D+00 0.146D+01
 Gap=     0.416 Goal=   None    Shift=    0.000
 Gap=     0.561 Goal=   None    Shift=    0.000
 RMSDP=9.24D-08 MaxDP=2.80D-06 DE=-3.47D-10 OVMax= 4.79D-06

 Cycle  11  Pass 1  IDiag  1:
 RMSU=  2.09D-08    CP:  8.97D-01  2.80D+00  1.49D+00  1.54D+00  1.91D+00
                    CP:  1.77D+00  1.80D+00  1.77D+00  1.92D+00  1.53D+00
 FoFJK:  IHMeth= 1 ICntrl=     0 DoSepK=T KAlg= 1 I1Cent= 0 FoldK=F
 E= -40.8665792560883     Delta-E=       -0.000000000030 Rises=F Damp=F
 DIIS: error= 1.20D-07 at cycle  11 NSaved=  11.
 NSaved=11 IEnMin=11 EnMin= -40.8665792560883     IErMin=11 ErrMin= 1.20D-07
 ErrMax= 1.20D-07 EMaxC= 1.00D-01 BMatC= 1.54D-12 BMatP= 2.14D-11
 IDIUse=1 WtCom= 1.00D+00 WtEn= 0.00D+00
 Coeff-Com:  0.115D-05 0.235D-05-0.525D-05-0.117D-03 0.258D-03 0.158D-02
 Coeff-Com: -0.888D-02 0.321D-01-0.103D-01-0.338D+00 0.132D+01
 Coeff:      0.115D-05 0.235D-05-0.525D-05-0.117D-03 0.258D-03 0.158D-02
 Coeff:     -0.888D-02 0.321D-01-0.103D-01-0.338D+00 0.132D+01
 Gap=     0.416 Goal=   None    Shift=    0.000
 Gap=     0.561 Goal=   None    Shift=    0.000
 RMSDP=2.30D-08 MaxDP=5.36D-07 DE=-3.00D-11 OVMax= 1.16D-06

 Cycle  12  Pass 1  IDiag  1:
 RMSU=  3.48D-09    CP:  8.97D-01  2.80D+00  1.49D+00  1.54D+00  1.91D+00
                    CP:  1.77D+00  1.81D+00  1.77D+00  1.95D+00  1.66D+00
                    CP:  1.47D+00
 FoFJK:  IHMeth= 1 ICntrl=     0 DoSepK=T KAlg= 1 I1Cent= 0 FoldK=F
 E= -40.8665792560891     Delta-E=       -0.000000000001 Rises=F Damp=F
 DIIS: error= 2.82D-08 at cycle  12 NSaved=  12.
 NSaved=12 IEnMin=12 EnMin= -40.8665792560891     IErMin=12 ErrMin= 2.82D-08
 ErrMax= 2.82D-08 EMaxC= 1.00D-01 BMatC= 5.33D-14 BMatP= 1.54D-12
 IDIUse=1 WtCom= 1.00D+00 WtEn= 0.00D+00
 Coeff-Com: -0.526D-06-0.948D-06 0.115D-06 0.449D-04-0.120D-03-0.456D-03
 Coeff-Com:  0.304D-02-0.130D-01 0.219D-01 0.490D-01-0.431D+00 0.137D+01
 Coeff:     -0.526D-06-0.948D-06 0.115D-06 0.449D-04-0.120D-03-0.456D-03
 Coeff:      0.304D-02-0.130D-01 0.219D-01 0.490D-01-0.431D+00 0.137D+01
 Gap=     0.416 Goal=   None    Shift=    0.000
 Gap=     0.561 Goal=   None    Shift=    0.000
 RMSDP=3.54D-09 MaxDP=9.94D-08 DE=-7.96D-13 OVMax= 2.00D-07

 SCF Done:  E(ULC-B+HF-LYP) =  -40.8665792561     A.U. after   12 cycles
             Convg  =    0.3536D-08             -V/T =  2.0039
 <Sx>= 0.0000 <Sy>= 0.0000 <Sz>= 0.5000 <S**2>= 0.7574 S= 0.5037
 <L.S>= 0.000000000000E+00
 KE= 4.070970001031D+01 PE=-1.234648386206D+02 EE= 2.718450524854D+01
 Annihilation of the first spin contaminant:
 S**2 before annihilation     0.7574,   after     0.7500
 Leave Link  502 at Wed Nov  3 01:39:55 2010, MaxMem=  786432000 cpu:     281.5
 (Enter /share/apps/G09A02/g09/l601.exe)
 Copying SCF densities to generalized density rwf, IOpCl= 1 IROHF=0.

 **********************************************************************

            Population analysis using the SCF density.

 **********************************************************************

 Alpha  occ. eigenvalues --  -10.14698  -0.86361  -0.57840  -0.55959  -0.55959
 Alpha  occ. eigenvalues --   -0.34690
 Alpha virt. eigenvalues --    0.06897   0.09025   0.09025   0.10779   0.21159
 Alpha virt. eigenvalues --    0.22914   0.22914   0.25663   0.36069   0.36069
 Alpha virt. eigenvalues --    0.40245   0.40245   0.43356   0.46817   0.60880
 Alpha virt. eigenvalues --    0.63485   0.63485   0.69446   0.70045   0.70045
 Alpha virt. eigenvalues --    0.76743   0.85840   0.85840   0.87952   0.94930
 Alpha virt. eigenvalues --    1.07629   1.07629   1.14982   1.14982   1.19744
 Alpha virt. eigenvalues --    1.29641   1.29641   1.41377   1.45862   1.45862
 Alpha virt. eigenvalues --    1.48699   1.73762   1.82635   1.82635   2.15041
 Alpha virt. eigenvalues --    2.15041   2.24151   2.53696   2.56917   2.78475
 Alpha virt. eigenvalues --    2.78475   2.81957   3.05616   3.08249   3.12775
 Alpha virt. eigenvalues --    3.12775   3.27774   3.27774   3.39972   3.66952
 Alpha virt. eigenvalues --    3.66952   3.76526   3.76526   4.00620   4.25973
 Alpha virt. eigenvalues --    4.26964   4.26964   4.38168   4.38168   4.44810
 Alpha virt. eigenvalues --    4.44810   4.52743   4.90596   5.39929   5.74112
 Alpha virt. eigenvalues --    5.74112   5.80478   7.16554   7.16555   7.54790
 Alpha virt. eigenvalues --    7.74929   7.74930  24.21541
  Beta  occ. eigenvalues --  -10.13298  -0.82167  -0.54939  -0.54939  -0.54335
  Beta virt. eigenvalues --    0.01754   0.07564   0.08972   0.08972   0.10917
  Beta virt. eigenvalues --    0.23061   0.23231   0.23231   0.27100   0.36924
  Beta virt. eigenvalues --    0.36924   0.40349   0.40349   0.45532   0.47419
  Beta virt. eigenvalues --    0.63758   0.64368   0.64368   0.70304   0.70732
  Beta virt. eigenvalues --    0.70732   0.77522   0.86445   0.86445   0.89670
  Beta virt. eigenvalues --    0.94894   1.08283   1.08283   1.15202   1.15202
  Beta virt. eigenvalues --    1.20953   1.29700   1.29700   1.42860   1.46779
  Beta virt. eigenvalues --    1.46779   1.50363   1.75492   1.86787   1.86787
  Beta virt. eigenvalues --    2.16119   2.16119   2.28134   2.55308   2.57212
  Beta virt. eigenvalues --    2.80054   2.80054   2.83188   3.06037   3.11658
  Beta virt. eigenvalues --    3.15889   3.15889   3.30192   3.30192   3.44792
  Beta virt. eigenvalues --    3.68063   3.68063   3.78128   3.78128   4.01197
  Beta virt. eigenvalues --    4.26658   4.26658   4.27922   4.38840   4.38840
  Beta virt. eigenvalues --    4.45412   4.45412   4.53727   4.90816   5.40928
  Beta virt. eigenvalues --    5.74744   5.74744   5.81792   7.22480   7.22481
  Beta virt. eigenvalues --    7.62306   7.76647   7.76647  24.23373
          Condensed to atoms (all electrons):
              1          2          3          4          5          6
     1  C    5.407012   0.005619   0.405946   0.405945   0.405945  -0.061627
     2  H    0.005619   0.552458  -0.003732  -0.003733  -0.003733   0.415174
     3  H    0.405946  -0.003732   0.438077  -0.018103  -0.018103  -0.001218
     4  H    0.405945  -0.003733  -0.018103   0.438077  -0.018103  -0.001218
     5  H    0.405945  -0.003733  -0.018103  -0.018103   0.438077  -0.001218
     6  H   -0.061627   0.415174  -0.001218  -0.001218  -0.001218   0.710615
 Mulliken atomic charges:
              1
     1  C   -0.568840
     2  H    0.037947
     3  H    0.197133
     4  H    0.197134
     5  H    0.197134
     6  H   -0.060509
 Sum of Mulliken atomic charges =   0.00000
 Mulliken charges with hydrogens summed into heavy atoms:
              1
     1  C    0.000000
 Sum of Mulliken charges with hydrogens summed into heavy atoms =   0.00000
          Atomic-Atomic Spin Densities.
              1          2          3          4          5          6
     1  C    1.025680  -0.012407   0.003865   0.003865   0.003865  -0.069961
     2  H   -0.012407  -0.099885   0.000895   0.000895   0.000895   0.025127
     3  H    0.003865   0.000895  -0.029045   0.002278   0.002278   0.000057
     4  H    0.003865   0.000895   0.002278  -0.029046   0.002278   0.000057
     5  H    0.003865   0.000895   0.002278   0.002278  -0.029046   0.000057
     6  H   -0.069961   0.025127   0.000057   0.000057   0.000057   0.233256
 Mulliken atomic spin densities:
              1
     1  C    0.954908
     2  H   -0.084480
     3  H   -0.019672
     4  H   -0.019674
     5  H   -0.019674
     6  H    0.188593
 Sum of Mulliken atomic spin densities =   1.00000
 Electronic spatial extent (au):  <R**2>=             69.0598
 Charge=              0.0000 electrons
 Dipole moment (field-independent basis, Debye):
    X=              0.0000    Y=              0.0000    Z=             -0.4365  Tot=              0.4365
 Quadrupole moment (field-independent basis, Debye-Ang):
   XX=             -9.3960   YY=             -9.3960   ZZ=            -11.7605
   XY=              0.0000   XZ=              0.0000   YZ=              0.0000
 Traceless Quadrupole moment (field-independent basis, Debye-Ang):
   XX=              0.7882   YY=              0.7882   ZZ=             -1.5763
   XY=              0.0000   XZ=              0.0000   YZ=              0.0000
 Octapole moment (field-independent basis, Debye-Ang**2):
  XXX=              0.9601  YYY=              0.0000  ZZZ=            -13.5526  XYY=             -0.9601
  XXY=              0.0000  XXZ=             -4.6092  XZZ=              0.0000  YZZ=              0.0000
  YYZ=             -4.6092  XYZ=              0.0000
 Hexadecapole moment (field-independent basis, Debye-Ang**3):
 XXXX=            -17.3433 YYYY=            -17.3433 ZZZZ=            -74.4164 XXXY=              0.0000
 XXXZ=             -0.1863 YYYX=              0.0000 YYYZ=              0.0000 ZZZX=              0.0000
 ZZZY=              0.0000 XXYY=             -5.7811 XXZZ=            -16.3095 YYZZ=            -16.3095
 XXYZ=              0.0000 YYXZ=              0.1863 ZZXY=              0.0000
 N-N= 1.470405410563D+01 E-N=-1.820522740322D+02  KE= 6.042630348274D+01
                          Isotropic Fermi Contact Couplings
        Atom                 a.u.       MegaHertz       Gauss      10(-4) cm-1
     1  C(13)              0.07489      84.18889      30.04069      28.08239
     2  H(1)              -0.02267    -101.31327     -36.15109     -33.79447
     3  H(1)              -0.01164     -52.02545     -18.56397     -17.35382
     4  H(1)              -0.01164     -52.02570     -18.56406     -17.35391
     5  H(1)              -0.01164     -52.02570     -18.56406     -17.35391
     6  H(1)               0.06518     291.36678     103.96691      97.18950
 --------------------------------------------------------
       Center         ----  Spin Dipole Couplings  ----
                      3XX-RR        3YY-RR        3ZZ-RR
 --------------------------------------------------------
     1   Atom       -0.567619     -0.567618      1.135236
     2   Atom       -0.067596     -0.067596      0.135191
     3   Atom        0.070196     -0.070175     -0.000021
     4   Atom       -0.035083      0.035103     -0.000021
     5   Atom       -0.035083      0.035103     -0.000021
     6   Atom       -0.002348     -0.002348      0.004696
 --------------------------------------------------------
                        XY            XZ            YZ
 --------------------------------------------------------
     1   Atom        0.000000      0.000000      0.000000
     2   Atom        0.000000      0.000000      0.000000
     3   Atom        0.000000     -0.011939      0.000000
     4   Atom        0.060783      0.005969      0.010339
     5   Atom       -0.060783      0.005969     -0.010339
     6   Atom        0.000000      0.000000      0.000000
 --------------------------------------------------------


 ---------------------------------------------------------------------------------
              Anisotropic Spin Dipole Couplings in Principal Axis System
 ---------------------------------------------------------------------------------

       Atom             a.u.   MegaHertz   Gauss  10(-4) cm-1        Axes

              Baa    -0.5676   -76.169   -27.179   -25.407  1.0000  0.0000  0.0000
     1 C(13)  Bbb    -0.5676   -76.169   -27.179   -25.407  0.0000  1.0000  0.0000
              Bcc     1.1352   152.338    54.358    50.814  0.0000  0.0000  1.0000
 
              Baa    -0.0676   -36.066   -12.869   -12.030  0.0000  1.0000  0.0000
     2 H(1)   Bbb    -0.0676   -36.066   -12.869   -12.030  1.0000  0.0000  0.0000
              Bcc     0.1352    72.132    25.738    24.060  0.0000  0.0000  1.0000
 
              Baa    -0.0702   -37.442   -13.360   -12.489  0.0000  1.0000  0.0000
     3 H(1)   Bbb    -0.0020    -1.064    -0.380    -0.355  0.1632  0.0000  0.9866
              Bcc     0.0722    38.507    13.740    12.844  0.9866  0.0000 -0.1632
 
              Baa    -0.0702   -37.442   -13.360   -12.489  0.8660 -0.5000  0.0000
     4 H(1)   Bbb    -0.0020    -1.064    -0.380    -0.355 -0.0816 -0.1413  0.9866
              Bcc     0.0722    38.507    13.740    12.844  0.4933  0.8544  0.1632
 
              Baa    -0.0702   -37.442   -13.360   -12.489  0.8660  0.5000  0.0000
     5 H(1)   Bbb    -0.0020    -1.064    -0.380    -0.355 -0.0816  0.1413  0.9866
              Bcc     0.0722    38.507    13.740    12.844 -0.4933  0.8544 -0.1632
 
              Baa    -0.0023    -1.253    -0.447    -0.418  0.0000  1.0000  0.0000
     6 H(1)   Bbb    -0.0023    -1.253    -0.447    -0.418  1.0000  0.0000  0.0000
              Bcc     0.0047     2.505     0.894     0.836  0.0000  0.0000  1.0000
 

 ---------------------------------------------------------------------------------

 No NMR shielding tensors so no spin-rotation constants.
 Leave Link  601 at Wed Nov  3 01:39:55 2010, MaxMem=  786432000 cpu:       3.9
 (Enter /share/apps/G09A02/g09/l9999.exe)
 1\1\GINC-COMPUTE-0-7\SP\ULC-BLYP\6-311+G(3df,2p)\C1H5(2)\WENXINZY\03-N
 ov-2010\0\\#p lc-blyp/6-311+g(3df,2p) nosymm scf=tight\\8 H2+CH3\\0,2\
 C\H,1,1.7544777\H,1,1.0807074,2,96.6423642\H,1,1.0807074,2,96.6423642,
 3,120.,0\H,1,1.0807074,2,96.6423642,3,-120.,0\H,2,0.7745274,1,180.,3,0
 .,0\\Version=EM64L-G09RevA.02\HF=-40.8665793\S2=0.757431\S2-1=0.\S2A=0
 .750034\RMSD=3.536e-09\Dipole=0.0000001,0.,-0.1717266\Quadrupole=0.585
 982,0.5859835,-1.1719655,0.,0.0000013,0.\PG=C03V [C3(H1H1C1),3SGV(H1)]
 \\@


 THE ATTENTION SPAN OF A COMPUTER IS AS LONG
 AS ITS EXTENSION CORD.
 Job cpu time:  0 days  0 hours  4 minutes 56.5 seconds.
 File lengths (MBytes):  RWF=      9 Int=      0 D2E=      0 Chk=      1 Scr=      1
 Normal termination of Gaussian 09 at Wed Nov  3 01:39:55 2010.
