 Entering Gaussian System, Link 0=/share/apps/G09A02/g09/g09
 Input=./.script12553/Job_H_CH4_11.com
 Output=./.script12553/Job_H_CH4_11.log
 Initial command:
 /share/apps/G09A02/g09/l1.exe /state/partition1/wenxinzy/scratch/Gau-13698.inp -scrdir=/state/partition1/wenxinzy/scratch/
 Default is to use a total of   8 processors:
                                8 via shared-memory
                                1 via Linda
 Entering Link 1 = /share/apps/G09A02/g09/l1.exe PID=     13699.
  
 Copyright (c) 1988,1990,1992,1993,1995,1998,2003,2009, Gaussian, Inc.
                  All Rights Reserved.
  
 This is part of the Gaussian(R) 09 program.  It is based on
 the Gaussian(R) 03 system (copyright 2003, Gaussian, Inc.),
 the Gaussian(R) 98 system (copyright 1998, Gaussian, Inc.),
 the Gaussian(R) 94 system (copyright 1995, Gaussian, Inc.),
 the Gaussian 92(TM) system (copyright 1992, Gaussian, Inc.),
 the Gaussian 90(TM) system (copyright 1990, Gaussian, Inc.),
 the Gaussian 88(TM) system (copyright 1988, Gaussian, Inc.),
 the Gaussian 86(TM) system (copyright 1986, Carnegie Mellon
 University), and the Gaussian 82(TM) system (copyright 1983,
 Carnegie Mellon University). Gaussian is a federally registered
 trademark of Gaussian, Inc.
  
 This software contains proprietary and confidential information,
 including trade secrets, belonging to Gaussian, Inc.
  
 This software is provided under written license and may be
 used, copied, transmitted, or stored only in accord with that
 written license.
  
 The following legend is applicable only to US Government
 contracts under FAR:
  
                    RESTRICTED RIGHTS LEGEND
  
 Use, reproduction and disclosure by the US Government is
 subject to restrictions as set forth in subparagraphs (a)
 and (c) of the Commercial Computer Software - Restricted
 Rights clause in FAR 52.227-19.
  
 Gaussian, Inc.
 340 Quinnipiac St., Bldg. 40, Wallingford CT 06492
  
  
 ---------------------------------------------------------------
 Warning -- This program may not be used in any manner that
 competes with the business of Gaussian, Inc. or will provide
 assistance to any competitor of Gaussian, Inc.  The licensee
 of this program is prohibited from giving any competitor of
 Gaussian, Inc. access to this program.  By using this program,
 the user acknowledges that Gaussian, Inc. is engaged in the
 business of creating and licensing software in the field of
 computational chemistry and represents and warrants to the
 licensee that it is not a competitor of Gaussian, Inc. and that
 it will not use this program in any manner prohibited above.
 ---------------------------------------------------------------
  

 Cite this work as:
 Gaussian 09, Revision A.02,
 M. J. Frisch, G. W. Trucks, H. B. Schlegel, G. E. Scuseria, 
 M. A. Robb, J. R. Cheeseman, G. Scalmani, V. Barone, B. Mennucci, 
 G. A. Petersson, H. Nakatsuji, M. Caricato, X. Li, H. P. Hratchian, 
 A. F. Izmaylov, J. Bloino, G. Zheng, J. L. Sonnenberg, M. Hada, 
 M. Ehara, K. Toyota, R. Fukuda, J. Hasegawa, M. Ishida, T. Nakajima, 
 Y. Honda, O. Kitao, H. Nakai, T. Vreven, J. A. Montgomery, Jr., 
 J. E. Peralta, F. Ogliaro, M. Bearpark, J. J. Heyd, E. Brothers, 
 K. N. Kudin, V. N. Staroverov, R. Kobayashi, J. Normand, 
 K. Raghavachari, A. Rendell, J. C. Burant, S. S. Iyengar, J. Tomasi, 
 M. Cossi, N. Rega, J. M. Millam, M. Klene, J. E. Knox, J. B. Cross, 
 V. Bakken, C. Adamo, J. Jaramillo, R. Gomperts, R. E. Stratmann, 
 O. Yazyev, A. J. Austin, R. Cammi, C. Pomelli, J. W. Ochterski, 
 R. L. Martin, K. Morokuma, V. G. Zakrzewski, G. A. Voth, 
 P. Salvador, J. J. Dannenberg, S. Dapprich, A. D. Daniels, 
 O. Farkas, J. B. Foresman, J. V. Ortiz, J. Cioslowski, 
 and D. J. Fox, Gaussian, Inc., Wallingford CT, 2009.
 
 ******************************************
 Gaussian 09:  EM64L-G09RevA.02 11-Jun-2009
                 3-Nov-2010 
 ******************************************
 %chk=/state/partition1/wenxinzy/scratch/H_CH4_11.chk
 %nproc=8
 Will use up to    8 processors via shared memory.
 %mem=6000mb
 -------------------------------------------
 #p lc-blyp/6-311+g(3df,2p) nosymm scf=tight
 -------------------------------------------
 1/38=1/1;
 2/12=2,15=1,17=6,18=5,40=1/2;
 3/5=4,6=6,7=216,11=2,16=1,25=1,30=1,74=1000402/1,2,3;
 4//1;
 5/5=2,32=2,38=5/2;
 6/7=2,8=2,9=2,10=2,28=1/1;
 99/5=1,9=1/99;
 Leave Link    1 at Wed Nov  3 01:14:02 2010, MaxMem=  786432000 cpu:       0.3
 (Enter /share/apps/G09A02/g09/l101.exe)
 --------
 12 H_CH4
 --------
 Symbolic Z-matrix:
 Charge =  0 Multiplicity = 2
 C
 H1                   C    R1
 H2                   C    R2       H1   A1
 H3                   C    R2       H1   A1       H2    120.     0
 H4                   C    R2       H1   A1       H2   -120.     0
 H5                   H1   R3       C     180.     H2    0.       0
       Variables:
  R1                    1.1012                   
  R2                    1.08951                  
  A1                  109.14974                  
  R3                    1.51891                  
 
 NAtoms=      6 NQM=      6 NQMF=      0 NMic=      0 NMicF=      0 NTot=      6.
                    Isotopes and Nuclear Properties:
 (Nuclear quadrupole moments (NQMom) in fm**2, nuclear magnetic moments (NMagM)
  in nuclear magnetons)

  Atom         1           2           3           4           5           6
 IAtWgt=          12           1           1           1           1           1
 AtmWgt=  12.0000000   1.0078250   1.0078250   1.0078250   1.0078250   1.0078250
 NucSpn=           0           1           1           1           1           1
 AtZEff=   0.0000000   0.0000000   0.0000000   0.0000000   0.0000000   0.0000000
 NQMom=    0.0000000   0.0000000   0.0000000   0.0000000   0.0000000   0.0000000
 NMagM=    0.0000000   2.7928460   2.7928460   2.7928460   2.7928460   2.7928460
 Leave Link  101 at Wed Nov  3 01:14:03 2010, MaxMem=  786432000 cpu:       1.2
 (Enter /share/apps/G09A02/g09/l202.exe)
                          Input orientation:                          
 ---------------------------------------------------------------------
 Center     Atomic      Atomic             Coordinates (Angstroms)
 Number     Number       Type             X           Y           Z
 ---------------------------------------------------------------------
      1          6           0        0.000000    0.000000    0.000000
      2          1           0        0.000000    0.000000    1.101200
      3          1           0        1.029219    0.000000   -0.357400
      4          1           0       -0.514610   -0.891330   -0.357400
      5          1           0       -0.514610    0.891330   -0.357400
      6          1           0        0.000000    0.000000    2.620110
 ---------------------------------------------------------------------
                    Distance matrix (angstroms):
                    1          2          3          4          5
     1  C    0.000000
     2  H    1.101200   0.000000
     3  H    1.089508   1.785163   0.000000
     4  H    1.089508   1.785163   1.782660   0.000000
     5  H    1.089508   1.785163   1.782660   1.782660   0.000000
     6  H    2.620110   1.518910   3.150374   3.150374   3.150374
                    6
     6  H    0.000000
 Symmetry turned off by external request.
 Stoichiometry    CH5(2)
 Framework group  C3V[C3(HHC),3SGV(H)]
 Deg. of freedom     4
 Full point group                 C3V     NOp   6
 Rotational constants (GHZ):    157.7956501     52.0469287     52.0469287
 Leave Link  202 at Wed Nov  3 01:14:03 2010, MaxMem=  786432000 cpu:       0.1
 (Enter /share/apps/G09A02/g09/l301.exe)
 Standard basis: 6-311+G(3df,2p) (5D, 7F)
 Ernie: Thresh=  0.10000D-02 Tol=  0.10000D-05 Strict=F.
 Integral buffers will be    131072 words long.
 Raffenetti 2 integral format.
 Two-electron integral symmetry is turned off.
    84 basis functions,   113 primitive gaussians,    90 cartesian basis functions
     6 alpha electrons        5 beta electrons
       nuclear repulsion energy        15.4698817205 Hartrees.
 IExCor=10402 DFT=T Ex=LC-B+HF Corr=LYP ExCW=0 ScaHFX=  1.000000
 ScaDFX=  1.000000  1.000000  1.000000  1.000000 ScalE2=  1.000000  1.000000
 IRadAn=      0 IRanWt=     -1 IRanGd=            0 ICorTp=0
  HFx wShort=  0.000000 wLong=  0.470000 cFull=  0.000000 cShort=  0.000000 cLong=  1.000000
  DFx wShort=  0.000000 wLong=  0.470000 cFull=  0.000000 cShort=  0.000000 cLong=  1.000000
 NAtoms=    6 NActive=    6 NUniq=    6 SFac= 7.50D-01 NAtFMM=   80 NAOKFM=F Big=F
 Leave Link  301 at Wed Nov  3 01:14:03 2010, MaxMem=  786432000 cpu:       0.7
 (Enter /share/apps/G09A02/g09/l302.exe)
 NPDir=0 NMtPBC=     1 NCelOv=     1 NCel=       1 NClECP=     1 NCelD=      1
         NCelK=      1 NCelE2=     1 NClLst=     1 CellRange=     0.0.
 One-electron integrals computed using PRISM.
 NBasis=    84 RedAO= T  NBF=    84
 NBsUse=    84 1.00D-06 NBFU=    84
 Precomputing XC quadrature grid using
 IXCGrd= 2 IRadAn=           0 IRanWt=          -1 IRanGd=           0 AccXCQ= 1.00D-10.
 NRdTot=     383 NPtTot=       48740 NUsed=       51512 NTot=       51544
 NSgBfM=    90    90    90    90    90 NAtAll=     6     6.
 Leave Link  302 at Wed Nov  3 01:14:03 2010, MaxMem=  786432000 cpu:       2.5
 (Enter /share/apps/G09A02/g09/l303.exe)
 DipDrv:  MaxL=1.
 Leave Link  303 at Wed Nov  3 01:14:03 2010, MaxMem=  786432000 cpu:       1.1
 (Enter /share/apps/G09A02/g09/l401.exe)
 Harris functional with IExCor=10402 diagonalized for initial guess.
 ExpMin= 4.38D-02 ExpMax= 4.56D+03 ExpMxC= 6.82D+02 IAcc=2 IRadAn=         0 AccDes= 0.00D+00
 HarFok:  IExCor=10402 AccDes= 0.00D+00 IRadAn=         0 IDoV= 1
 ScaDFX=  1.000000  1.000000  1.000000  1.000000
 FoFCou: FMM=F IPFlag=           0 FMFlag=      100000 FMFlg1=           0
         NFxFlg=           0 DoJE=T BraDBF=F KetDBF=T FulRan=T
         Omega=  0.000000  0.000000  1.000000  0.000000  0.000000 ICntrl=     500 IOpCl=  0
         NMat0=    1 NMatS0=    1 NMatT0=    0 NMatD0=    1 NMtDS0=    0 NMtDT0=    0
         I1Cent=           4 NGrid=           0.
 Symmetry not used in FoFCou.
 Harris En= -38.5583097105548    
 Initial guess <Sx>= 0.0000 <Sy>= 0.0000 <Sz>= 0.5000 <S**2>= 0.7500 S= 0.5000
 Leave Link  401 at Wed Nov  3 01:14:04 2010, MaxMem=  786432000 cpu:       3.7
 (Enter /share/apps/G09A02/g09/l502.exe)
 UHF open shell SCF:
 Requested convergence on RMS density matrix=1.00D-08 within 128 cycles.
 Requested convergence on MAX density matrix=1.00D-06.
 Requested convergence on             energy=1.00D-06.
 No special actions if energy rises.
 Using DIIS extrapolation, IDIIS=  1040.
 Two-electron integral symmetry not used.
        51445 words used for storage of precomputed grid.
 IEnd=       95163 IEndB=       95163 NGot=   786432000 MDV=   786361668
 LenX=   786361668 LenY=   786353127
 Fock matrices will be formed incrementally for  20 cycles.

 Cycle   1  Pass 1  IDiag  1:
 FoFJK:  IHMeth= 1 ICntrl=     0 DoSepK=T KAlg= 1 I1Cent= 0 FoldK=F
 FoFCou: FMM=F IPFlag=           0 FMFlag=      100000 FMFlg1=           0
         NFxFlg=           0 DoJE=T BraDBF=F KetDBF=F FulRan=T
         Omega=  0.000000  0.000000  1.000000  0.000000  0.000000 ICntrl=     500 IOpCl=  0
         NMat0=    1 NMatS0=    1 NMatT0=    0 NMatD0=    1 NMtDS0=    0 NMtDT0=    0
         I1Cent=           0 NGrid=           0.
 Symmetry not used in FoFCou.
 E= -40.7959830945909    
 DIIS: error= 3.29D-02 at cycle   1 NSaved=   1.
 NSaved= 1 IEnMin= 1 EnMin= -40.7959830945909     IErMin= 1 ErrMin= 3.29D-02
 ErrMax= 3.29D-02 EMaxC= 1.00D-01 BMatC= 2.55D-01 BMatP= 2.55D-01
 IDIUse=3 WtCom= 6.71D-01 WtEn= 3.29D-01
 Coeff-Com:  0.100D+01
 Coeff-En:   0.100D+01
 Coeff:      0.100D+01
 Gap=     0.480 Goal=   None    Shift=    0.000
 Gap=     0.379 Goal=   None    Shift=    0.000
 GapD=    0.379 DampG=1.000 DampE=0.500 DampFc=0.5000 IDamp=-1.
 Damping current iteration by 5.00D-01
 RMSDP=6.32D-03 MaxDP=2.20D-01              OVMax= 1.72D-01

 Cycle   2  Pass 1  IDiag  1:
 RMSU=  2.24D-03    CP:  8.60D-01
 FoFJK:  IHMeth= 1 ICntrl=     0 DoSepK=T KAlg= 1 I1Cent= 0 FoldK=F
 E= -40.8373116202693     Delta-E=       -0.041328525678 Rises=F Damp=T
 DIIS: error= 1.24D-02 at cycle   2 NSaved=   2.
 NSaved= 2 IEnMin= 2 EnMin= -40.8373116202693     IErMin= 2 ErrMin= 1.24D-02
 ErrMax= 1.24D-02 EMaxC= 1.00D-01 BMatC= 1.98D-02 BMatP= 2.55D-01
 IDIUse=3 WtCom= 8.76D-01 WtEn= 1.24D-01
 Coeff-Com: -0.204D+00 0.120D+01
 Coeff-En:   0.000D+00 0.100D+01
 Coeff:     -0.179D+00 0.118D+01
 Gap=     0.495 Goal=   None    Shift=    0.000
 Gap=     0.492 Goal=   None    Shift=    0.000
 RMSDP=3.88D-03 MaxDP=1.44D-01 DE=-4.13D-02 OVMax= 5.98D-02

 Cycle   3  Pass 1  IDiag  1:
 RMSU=  1.17D-03    CP:  7.00D-01  2.15D+00
 FoFJK:  IHMeth= 1 ICntrl=     0 DoSepK=T KAlg= 1 I1Cent= 0 FoldK=F
 E= -40.8780013051149     Delta-E=       -0.040689684846 Rises=F Damp=F
 DIIS: error= 2.70D-03 at cycle   3 NSaved=   3.
 NSaved= 3 IEnMin= 3 EnMin= -40.8780013051149     IErMin= 3 ErrMin= 2.70D-03
 ErrMax= 2.70D-03 EMaxC= 1.00D-01 BMatC= 1.12D-03 BMatP= 1.98D-02
 IDIUse=3 WtCom= 9.73D-01 WtEn= 2.70D-02
 Coeff-Com:  0.329D-01-0.262D+00 0.123D+01
 Coeff-En:   0.000D+00 0.000D+00 0.100D+01
 Coeff:      0.320D-01-0.255D+00 0.122D+01
 Gap=     0.478 Goal=   None    Shift=    0.000
 Gap=     0.517 Goal=   None    Shift=    0.000
 RMSDP=9.76D-04 MaxDP=3.54D-02 DE=-4.07D-02 OVMax= 3.54D-02

 Cycle   4  Pass 1  IDiag  1:
 RMSU=  4.23D-04    CP:  6.65D-01  2.36D+00  1.34D+00
 FoFJK:  IHMeth= 1 ICntrl=     0 DoSepK=T KAlg= 1 I1Cent= 0 FoldK=F
 E= -40.8791940465735     Delta-E=       -0.001192741459 Rises=F Damp=F
 DIIS: error= 8.12D-04 at cycle   4 NSaved=   4.
 NSaved= 4 IEnMin= 4 EnMin= -40.8791940465735     IErMin= 4 ErrMin= 8.12D-04
 ErrMax= 8.12D-04 EMaxC= 1.00D-01 BMatC= 8.31D-05 BMatP= 1.12D-03
 IDIUse=3 WtCom= 9.92D-01 WtEn= 8.12D-03
 Coeff-Com: -0.903D-02 0.133D-01-0.247D+00 0.124D+01
 Coeff-En:   0.000D+00 0.000D+00 0.000D+00 0.100D+01
 Coeff:     -0.895D-02 0.132D-01-0.245D+00 0.124D+01
 Gap=     0.480 Goal=   None    Shift=    0.000
 Gap=     0.516 Goal=   None    Shift=    0.000
 RMSDP=2.17D-04 MaxDP=7.60D-03 DE=-1.19D-03 OVMax= 9.65D-03

 Cycle   5  Pass 1  IDiag  1:
 RMSU=  3.15D-05    CP:  6.58D-01  2.40D+00  1.40D+00  1.29D+00
 FoFJK:  IHMeth= 1 ICntrl=     0 DoSepK=T KAlg= 1 I1Cent= 0 FoldK=F
 E= -40.8792887670617     Delta-E=       -0.000094720488 Rises=F Damp=F
 DIIS: error= 4.28D-04 at cycle   5 NSaved=   5.
 NSaved= 5 IEnMin= 5 EnMin= -40.8792887670617     IErMin= 5 ErrMin= 4.28D-04
 ErrMax= 4.28D-04 EMaxC= 1.00D-01 BMatC= 5.29D-06 BMatP= 8.31D-05
 IDIUse=3 WtCom= 9.96D-01 WtEn= 4.28D-03
 Coeff-Com:  0.117D-02 0.641D-02 0.322D-01-0.390D+00 0.135D+01
 Coeff-En:   0.000D+00 0.000D+00 0.000D+00 0.000D+00 0.100D+01
 Coeff:      0.116D-02 0.638D-02 0.321D-01-0.389D+00 0.135D+01
 Gap=     0.480 Goal=   None    Shift=    0.000
 Gap=     0.514 Goal=   None    Shift=    0.000
 RMSDP=2.66D-05 MaxDP=9.37D-04 DE=-9.47D-05 OVMax= 3.23D-03

 Cycle   6  Pass 1  IDiag  1:
 RMSU=  6.26D-06    CP:  6.58D-01  2.41D+00  1.40D+00  1.31D+00  1.57D+00
 FoFJK:  IHMeth= 1 ICntrl=     0 DoSepK=T KAlg= 1 I1Cent= 0 FoldK=F
 E= -40.8792955843752     Delta-E=       -0.000006817314 Rises=F Damp=F
 DIIS: error= 1.15D-04 at cycle   6 NSaved=   6.
 NSaved= 6 IEnMin= 6 EnMin= -40.8792955843752     IErMin= 6 ErrMin= 1.15D-04
 ErrMax= 1.15D-04 EMaxC= 1.00D-01 BMatC= 4.57D-07 BMatP= 5.29D-06
 IDIUse=3 WtCom= 9.99D-01 WtEn= 1.15D-03
 Coeff-Com:  0.344D-03-0.108D-02 0.142D-01-0.527D-01-0.135D+00 0.117D+01
 Coeff-En:   0.000D+00 0.000D+00 0.000D+00 0.000D+00 0.000D+00 0.100D+01
 Coeff:      0.343D-03-0.108D-02 0.142D-01-0.527D-01-0.135D+00 0.117D+01
 Gap=     0.481 Goal=   None    Shift=    0.000
 Gap=     0.514 Goal=   None    Shift=    0.000
 RMSDP=7.43D-06 MaxDP=1.73D-04 DE=-6.82D-06 OVMax= 8.82D-04

 Cycle   7  Pass 1  IDiag  1:
 RMSU=  2.52D-06    CP:  6.58D-01  2.40D+00  1.40D+00  1.31D+00  1.69D+00
                    CP:  1.48D+00
 FoFJK:  IHMeth= 1 ICntrl=     0 DoSepK=T KAlg= 1 I1Cent= 0 FoldK=F
 E= -40.8792960993263     Delta-E=       -0.000000514951 Rises=F Damp=F
 DIIS: error= 3.66D-05 at cycle   7 NSaved=   7.
 NSaved= 7 IEnMin= 7 EnMin= -40.8792960993263     IErMin= 7 ErrMin= 3.66D-05
 ErrMax= 3.66D-05 EMaxC= 1.00D-01 BMatC= 5.19D-08 BMatP= 4.57D-07
 IDIUse=1 WtCom= 1.00D+00 WtEn= 0.00D+00
 Coeff-Com: -0.258D-03-0.430D-03-0.467D-02 0.448D-01-0.983D-01-0.228D+00
 Coeff-Com:  0.129D+01
 Coeff:     -0.258D-03-0.430D-03-0.467D-02 0.448D-01-0.983D-01-0.228D+00
 Coeff:      0.129D+01
 Gap=     0.481 Goal=   None    Shift=    0.000
 Gap=     0.514 Goal=   None    Shift=    0.000
 RMSDP=2.80D-06 MaxDP=5.47D-05 DE=-5.15D-07 OVMax= 2.50D-04

 Cycle   8  Pass 1  IDiag  1:
 RMSU=  6.05D-07    CP:  6.58D-01  2.40D+00  1.40D+00  1.30D+00  1.71D+00
                    CP:  1.70D+00  1.52D+00
 FoFJK:  IHMeth= 1 ICntrl=     0 DoSepK=T KAlg= 1 I1Cent= 0 FoldK=F
 E= -40.8792961489546     Delta-E=       -0.000000049628 Rises=F Damp=F
 DIIS: error= 7.31D-06 at cycle   8 NSaved=   8.
 NSaved= 8 IEnMin= 8 EnMin= -40.8792961489546     IErMin= 8 ErrMin= 7.31D-06
 ErrMax= 7.31D-06 EMaxC= 1.00D-01 BMatC= 4.43D-09 BMatP= 5.19D-08
 IDIUse=1 WtCom= 1.00D+00 WtEn= 0.00D+00
 Coeff-Com:  0.741D-04 0.212D-03 0.100D-02-0.140D-01 0.517D-01 0.121D-01
 Coeff-Com: -0.571D+00 0.152D+01
 Coeff:      0.741D-04 0.212D-03 0.100D-02-0.140D-01 0.517D-01 0.121D-01
 Coeff:     -0.571D+00 0.152D+01
 Gap=     0.481 Goal=   None    Shift=    0.000
 Gap=     0.514 Goal=   None    Shift=    0.000
 RMSDP=8.89D-07 MaxDP=2.38D-05 DE=-4.96D-08 OVMax= 5.45D-05

 Cycle   9  Pass 1  IDiag  1:
 RMSU=  1.88D-07    CP:  6.58D-01  2.40D+00  1.40D+00  1.30D+00  1.72D+00
                    CP:  1.75D+00  1.67D+00  1.76D+00
 FoFJK:  IHMeth= 1 ICntrl=     0 DoSepK=T KAlg= 1 I1Cent= 0 FoldK=F
 E= -40.8792961529122     Delta-E=       -0.000000003958 Rises=F Damp=F
 DIIS: error= 1.42D-06 at cycle   9 NSaved=   9.
 NSaved= 9 IEnMin= 9 EnMin= -40.8792961529122     IErMin= 9 ErrMin= 1.42D-06
 ErrMax= 1.42D-06 EMaxC= 1.00D-01 BMatC= 1.40D-10 BMatP= 4.43D-09
 IDIUse=1 WtCom= 1.00D+00 WtEn= 0.00D+00
 Coeff-Com: -0.871D-05-0.509D-04-0.213D-03 0.295D-02-0.130D-01 0.250D-02
 Coeff-Com:  0.142D+00-0.509D+00 0.137D+01
 Coeff:     -0.871D-05-0.509D-04-0.213D-03 0.295D-02-0.130D-01 0.250D-02
 Coeff:      0.142D+00-0.509D+00 0.137D+01
 Gap=     0.481 Goal=   None    Shift=    0.000
 Gap=     0.514 Goal=   None    Shift=    0.000
 RMSDP=2.27D-07 MaxDP=6.99D-06 DE=-3.96D-09 OVMax= 1.00D-05

 Cycle  10  Pass 1  IDiag  1:
 RMSU=  4.58D-08    CP:  6.58D-01  2.40D+00  1.40D+00  1.30D+00  1.72D+00
                    CP:  1.75D+00  1.66D+00  1.90D+00  1.47D+00
 FoFJK:  IHMeth= 1 ICntrl=     0 DoSepK=T KAlg= 1 I1Cent= 0 FoldK=F
 E= -40.8792961530408     Delta-E=       -0.000000000129 Rises=F Damp=F
 DIIS: error= 2.37D-07 at cycle  10 NSaved=  10.
 NSaved=10 IEnMin=10 EnMin= -40.8792961530408     IErMin=10 ErrMin= 2.37D-07
 ErrMax= 2.37D-07 EMaxC= 1.00D-01 BMatC= 7.96D-12 BMatP= 1.40D-10
 IDIUse=1 WtCom= 1.00D+00 WtEn= 0.00D+00
 Coeff-Com:  0.247D-06 0.925D-05 0.515D-04-0.566D-03 0.271D-02-0.160D-02
 Coeff-Com: -0.265D-01 0.110D+00-0.461D+00 0.138D+01
 Coeff:      0.247D-06 0.925D-05 0.515D-04-0.566D-03 0.271D-02-0.160D-02
 Coeff:     -0.265D-01 0.110D+00-0.461D+00 0.138D+01
 Gap=     0.481 Goal=   None    Shift=    0.000
 Gap=     0.514 Goal=   None    Shift=    0.000
 RMSDP=4.68D-08 MaxDP=1.44D-06 DE=-1.29D-10 OVMax= 1.78D-06

 Cycle  11  Pass 1  IDiag  1:
 RMSU=  8.80D-09    CP:  6.58D-01  2.40D+00  1.40D+00  1.30D+00  1.72D+00
                    CP:  1.75D+00  1.66D+00  1.91D+00  1.54D+00  1.47D+00
 FoFJK:  IHMeth= 1 ICntrl=     0 DoSepK=T KAlg= 1 I1Cent= 0 FoldK=F
 E= -40.8792961530501     Delta-E=       -0.000000000009 Rises=F Damp=F
 DIIS: error= 8.56D-08 at cycle  11 NSaved=  11.
 NSaved=11 IEnMin=11 EnMin= -40.8792961530501     IErMin=11 ErrMin= 8.56D-08
 ErrMax= 8.56D-08 EMaxC= 1.00D-01 BMatC= 9.15D-13 BMatP= 7.96D-12
 IDIUse=1 WtCom= 1.00D+00 WtEn= 0.00D+00
 Coeff-Com: -0.459D-07-0.362D-06-0.102D-04 0.661D-04-0.330D-03 0.705D-03
 Coeff-Com:  0.712D-03-0.826D-02 0.813D-01-0.576D+00 0.150D+01
 Coeff:     -0.459D-07-0.362D-06-0.102D-04 0.661D-04-0.330D-03 0.705D-03
 Coeff:      0.712D-03-0.826D-02 0.813D-01-0.576D+00 0.150D+01
 Gap=     0.481 Goal=   None    Shift=    0.000
 Gap=     0.514 Goal=   None    Shift=    0.000
 RMSDP=1.29D-08 MaxDP=2.00D-07 DE=-9.28D-12 OVMax= 5.57D-07

 Cycle  12  Pass 1  IDiag  1:
 RMSU=  3.75D-09    CP:  6.58D-01  2.40D+00  1.40D+00  1.30D+00  1.72D+00
                    CP:  1.75D+00  1.66D+00  1.91D+00  1.55D+00  1.59D+00
                    CP:  1.68D+00
 FoFJK:  IHMeth= 1 ICntrl=     0 DoSepK=T KAlg= 1 I1Cent= 0 FoldK=F
 E= -40.8792961530510     Delta-E=       -0.000000000001 Rises=F Damp=F
 DIIS: error= 1.85D-08 at cycle  12 NSaved=  12.
 NSaved=12 IEnMin=12 EnMin= -40.8792961530510     IErMin=12 ErrMin= 1.85D-08
 ErrMax= 1.85D-08 EMaxC= 1.00D-01 BMatC= 5.33D-14 BMatP= 9.15D-13
 IDIUse=1 WtCom= 1.00D+00 WtEn= 0.00D+00
 Coeff-Com:  0.130D-06-0.133D-06 0.266D-06 0.233D-05-0.363D-04-0.860D-04
 Coeff-Com:  0.129D-02-0.491D-02 0.160D-01 0.244D-01-0.396D+00 0.136D+01
 Coeff:      0.130D-06-0.133D-06 0.266D-06 0.233D-05-0.363D-04-0.860D-04
 Coeff:      0.129D-02-0.491D-02 0.160D-01 0.244D-01-0.396D+00 0.136D+01
 Gap=     0.481 Goal=   None    Shift=    0.000
 Gap=     0.514 Goal=   None    Shift=    0.000
 RMSDP=4.32D-09 MaxDP=1.13D-07 DE=-8.67D-13 OVMax= 1.44D-07

 SCF Done:  E(ULC-B+HF-LYP) =  -40.8792961531     A.U. after   12 cycles
             Convg  =    0.4319D-08             -V/T =  2.0045
 <Sx>= 0.0000 <Sy>= 0.0000 <Sz>= 0.5000 <S**2>= 0.7521 S= 0.5010
 <L.S>= 0.000000000000E+00
 KE= 4.069539158327D+01 PE=-1.250620542943D+02 EE= 2.801748483750D+01
 Annihilation of the first spin contaminant:
 S**2 before annihilation     0.7521,   after     0.7500
 Leave Link  502 at Wed Nov  3 01:14:39 2010, MaxMem=  786432000 cpu:     281.1
 (Enter /share/apps/G09A02/g09/l601.exe)
 Copying SCF densities to generalized density rwf, IOpCl= 1 IROHF=0.

 **********************************************************************

            Population analysis using the SCF density.

 **********************************************************************

 Alpha  occ. eigenvalues --  -10.11811  -0.86635  -0.56429  -0.52973  -0.52973
 Alpha  occ. eigenvalues --   -0.41345
 Alpha virt. eigenvalues --    0.06709   0.09387   0.09387   0.10842   0.22345
 Alpha virt. eigenvalues --    0.22345   0.25397   0.28232   0.35706   0.35706
 Alpha virt. eigenvalues --    0.37775   0.41569   0.41569   0.45429   0.63347
 Alpha virt. eigenvalues --    0.63347   0.66147   0.70932   0.70932   0.71513
 Alpha virt. eigenvalues --    0.79047   0.80095   0.80096   0.87785   0.98773
 Alpha virt. eigenvalues --    1.03678   1.03678   1.06813   1.10037   1.10037
 Alpha virt. eigenvalues --    1.26289   1.26289   1.33267   1.40742   1.40742
 Alpha virt. eigenvalues --    1.55413   1.81085   2.06755   2.06755   2.07651
 Alpha virt. eigenvalues --    2.07651   2.13109   2.45963   2.66260   2.78414
 Alpha virt. eigenvalues --    2.78414   2.88305   3.08565   3.09975   3.09975
 Alpha virt. eigenvalues --    3.43946   3.43946   3.48809   3.64959   3.64959
 Alpha virt. eigenvalues --    3.74771   3.85363   3.85363   4.03987   4.18586
 Alpha virt. eigenvalues --    4.30358   4.30358   4.34167   4.35026   4.35027
 Alpha virt. eigenvalues --    4.57371   4.57371   4.59296   5.11078   5.87017
 Alpha virt. eigenvalues --    5.88463   5.88463   7.29890   7.29890   7.90397
 Alpha virt. eigenvalues --    7.90397   7.94385  24.27955
  Beta  occ. eigenvalues --  -10.11600  -0.86029  -0.52996  -0.52835  -0.52835
  Beta virt. eigenvalues --   -0.01424   0.07226   0.09287   0.09287   0.11370
  Beta virt. eigenvalues --    0.22408   0.22408   0.25908   0.28731   0.35823
  Beta virt. eigenvalues --    0.35823   0.39687   0.41520   0.41520   0.49720
  Beta virt. eigenvalues --    0.63917   0.63917   0.67353   0.71615   0.74191
  Beta virt. eigenvalues --    0.74191   0.79045   0.80178   0.80178   0.88242
  Beta virt. eigenvalues --    0.98770   1.04161   1.04161   1.09781   1.10164
  Beta virt. eigenvalues --    1.10164   1.26374   1.26374   1.33530   1.40885
  Beta virt. eigenvalues --    1.40885   1.56275   1.82860   2.06967   2.06967
  Beta virt. eigenvalues --    2.08090   2.08090   2.14412   2.52236   2.73192
  Beta virt. eigenvalues --    2.78617   2.78617   2.93171   3.08653   3.10484
  Beta virt. eigenvalues --    3.10484   3.44215   3.44215   3.49052   3.65111
  Beta virt. eigenvalues --    3.65111   3.76001   4.00001   4.00001   4.05543
  Beta virt. eigenvalues --    4.30314   4.30314   4.30333   4.34641   4.35039
  Beta virt. eigenvalues --    4.35039   4.57429   4.57429   4.59361   5.11330
  Beta virt. eigenvalues --    5.87451   5.88580   5.88580   7.30512   7.30512
  Beta virt. eigenvalues --    7.90774   7.90774   7.95221  24.28239
          Condensed to atoms (all electrons):
              1          2          3          4          5          6
     1  C    5.121703   0.387027   0.402885   0.402885   0.402885  -0.015549
     2  H    0.387027   0.473543  -0.016047  -0.016047  -0.016047  -0.024641
     3  H    0.402885  -0.016047   0.478666  -0.017335  -0.017335   0.000673
     4  H    0.402885  -0.016047  -0.017335   0.478664  -0.017334   0.000673
     5  H    0.402885  -0.016047  -0.017335  -0.017334   0.478664   0.000673
     6  H   -0.015549  -0.024641   0.000673   0.000673   0.000673   1.054025
 Mulliken atomic charges:
              1
     1  C   -0.701836
     2  H    0.212211
     3  H    0.168492
     4  H    0.168494
     5  H    0.168494
     6  H   -0.015854
 Sum of Mulliken atomic charges =   0.00000
 Mulliken charges with hydrogens summed into heavy atoms:
              1
     1  C    0.000000
 Sum of Mulliken charges with hydrogens summed into heavy atoms =   0.00000
          Atomic-Atomic Spin Densities.
              1          2          3          4          5          6
     1  C    0.125276   0.018675  -0.000770  -0.000770  -0.000770  -0.031099
     2  H    0.018675  -0.032105   0.000791   0.000792   0.000792  -0.053861
     3  H   -0.000770   0.000791  -0.002187   0.000052   0.000052   0.001262
     4  H   -0.000770   0.000792   0.000052  -0.002188   0.000052   0.001262
     5  H   -0.000770   0.000792   0.000052   0.000052  -0.002188   0.001262
     6  H   -0.031099  -0.053861   0.001262   0.001262   0.001262   1.037945
 Mulliken atomic spin densities:
              1
     1  C    0.110542
     2  H   -0.064916
     3  H   -0.000799
     4  H   -0.000800
     5  H   -0.000800
     6  H    0.956772
 Sum of Mulliken atomic spin densities =   1.00000
 Electronic spatial extent (au):  <R**2>=             64.2471
 Charge=              0.0000 electrons
 Dipole moment (field-independent basis, Debye):
    X=              0.0000    Y=              0.0000    Z=             -0.2394  Tot=              0.2394
 Quadrupole moment (field-independent basis, Debye-Ang):
   XX=             -9.8628   YY=             -9.8628   ZZ=            -10.7858
   XY=              0.0000   XZ=              0.0000   YZ=              0.0000
 Traceless Quadrupole moment (field-independent basis, Debye-Ang):
   XX=              0.3077   YY=              0.3077   ZZ=             -0.6153
   XY=              0.0000   XZ=              0.0000   YZ=              0.0000
 Octapole moment (field-independent basis, Debye-Ang**2):
  XXX=              0.6797  YYY=              0.0000  ZZZ=            -13.1310  XYY=             -0.6797
  XXY=              0.0000  XXZ=             -4.2278  XZZ=              0.0000  YZZ=              0.0000
  YYZ=             -4.2278  XYZ=              0.0000
 Hexadecapole moment (field-independent basis, Debye-Ang**3):
 XXXX=            -18.3190 YYYY=            -18.3190 ZZZZ=            -86.1424 XXXY=              0.0000
 XXXZ=             -0.4239 YYYX=              0.0000 YYYZ=              0.0000 ZZZX=              0.0000
 ZZZY=              0.0000 XXYY=             -6.1063 XXZZ=            -16.4267 YYZZ=            -16.4267
 XXYZ=              0.0000 YYXZ=              0.4239 ZZXY=              0.0000
 N-N= 1.546988172053D+01 E-N=-1.858641524345D+02  KE= 6.071102642769D+01
                          Isotropic Fermi Contact Couplings
        Atom                 a.u.       MegaHertz       Gauss      10(-4) cm-1
     1  C(13)              0.05516      62.01373      22.12804      20.68555
     2  H(1)              -0.00471     -21.05500      -7.51295      -7.02319
     3  H(1)              -0.00083      -3.69913      -1.31994      -1.23390
     4  H(1)              -0.00083      -3.69909      -1.31993      -1.23388
     5  H(1)              -0.00083      -3.69909      -1.31993      -1.23388
     6  H(1)               0.28307    1265.28722     451.48593     422.05439
 --------------------------------------------------------
       Center         ----  Spin Dipole Couplings  ----
                      3XX-RR        3YY-RR        3ZZ-RR
 --------------------------------------------------------
     1   Atom       -0.077879     -0.077879      0.155759
     2   Atom       -0.053271     -0.053271      0.106542
     3   Atom        0.004571     -0.011360      0.006788
     4   Atom       -0.007377      0.000589      0.006788
     5   Atom       -0.007377      0.000589      0.006788
     6   Atom        0.002624      0.002624     -0.005249
 --------------------------------------------------------
                        XY            XZ            YZ
 --------------------------------------------------------
     1   Atom        0.000000      0.000000      0.000000
     2   Atom        0.000000      0.000000      0.000000
     3   Atom        0.000000     -0.007766      0.000000
     4   Atom        0.006898      0.003883      0.006726
     5   Atom       -0.006898      0.003883     -0.006726
     6   Atom        0.000000      0.000000      0.000000
 --------------------------------------------------------


 ---------------------------------------------------------------------------------
              Anisotropic Spin Dipole Couplings in Principal Axis System
 ---------------------------------------------------------------------------------

       Atom             a.u.   MegaHertz   Gauss  10(-4) cm-1        Axes

              Baa    -0.0779   -10.451    -3.729    -3.486  1.0000  0.0000  0.0000
     1 C(13)  Bbb    -0.0779   -10.451    -3.729    -3.486  0.0000  1.0000  0.0000
              Bcc     0.1558    20.901     7.458     6.972  0.0000  0.0000  1.0000
 
              Baa    -0.0533   -28.423   -10.142    -9.481  1.0000  0.0000  0.0000
     2 H(1)   Bbb    -0.0533   -28.423   -10.142    -9.481  0.0000  1.0000  0.0000
              Bcc     0.1065    56.846    20.284    18.962  0.0000  0.0000  1.0000
 
              Baa    -0.0114    -6.061    -2.163    -2.022  0.0000  1.0000  0.0000
     3 H(1)   Bbb    -0.0022    -1.155    -0.412    -0.385  0.7554  0.0000  0.6553
              Bcc     0.0135     7.216     2.575     2.407 -0.6553  0.0000  0.7554
 
              Baa    -0.0114    -6.061    -2.163    -2.022  0.8660 -0.5000  0.0000
     4 H(1)   Bbb    -0.0022    -1.155    -0.412    -0.385 -0.3777 -0.6542  0.6553
              Bcc     0.0135     7.216     2.575     2.407  0.3276  0.5675  0.7554
 
              Baa    -0.0114    -6.061    -2.163    -2.022  0.8660  0.5000  0.0000
     5 H(1)   Bbb    -0.0022    -1.155    -0.412    -0.385 -0.3777  0.6542  0.6553
              Bcc     0.0135     7.216     2.575     2.407  0.3276 -0.5675  0.7554
 
              Baa    -0.0052    -2.801    -0.999    -0.934  0.0000  0.0000  1.0000
     6 H(1)   Bbb     0.0026     1.400     0.500     0.467  1.0000  0.0000  0.0000
              Bcc     0.0026     1.400     0.500     0.467  0.0000  1.0000  0.0000
 

 ---------------------------------------------------------------------------------

 No NMR shielding tensors so no spin-rotation constants.
 Leave Link  601 at Wed Nov  3 01:14:40 2010, MaxMem=  786432000 cpu:       4.2
 (Enter /share/apps/G09A02/g09/l9999.exe)
 1\1\GINC-COMPUTE-0-7\SP\ULC-BLYP\6-311+G(3df,2p)\C1H5(2)\WENXINZY\03-N
 ov-2010\0\\#p lc-blyp/6-311+g(3df,2p) nosymm scf=tight\\12 H_CH4\\0,2\
 C\H,1,1.1011996\H,1,1.0895077,2,109.1497433\H,1,1.0895077,2,109.149743
 3,3,120.,0\H,1,1.0895077,2,109.1497433,3,-120.,0\H,2,1.51891,1,180.,3,
 0.,0\\Version=EM64L-G09RevA.02\HF=-40.8792962\S2=0.752077\S2-1=0.\S2A=
 0.75\RMSD=4.319e-09\Dipole=0.0000008,0.,-0.0941942\Quadrupole=0.228742
 5,0.2287449,-0.4574874,0.,0.0000008,0.\PG=C03V [C3(H1H1C1),3SGV(H1)]\\
 @


 FROM THE ASHES OF OUR DESPAIR GROW THE FLOWERS OF TOMORROW.
 Job cpu time:  0 days  0 hours  4 minutes 56.1 seconds.
 File lengths (MBytes):  RWF=      9 Int=      0 D2E=      0 Chk=      1 Scr=      1
 Normal termination of Gaussian 09 at Wed Nov  3 01:14:40 2010.
