 Entering Gaussian System, Link 0=/share/apps/G09A02/g09/g09
 Input=./.script12553/Job_H_CH4_31.com
 Output=./.script12553/Job_H_CH4_31.log
 Initial command:
 /share/apps/G09A02/g09/l1.exe /state/partition1/wenxinzy/scratch/Gau-15734.inp -scrdir=/state/partition1/wenxinzy/scratch/
 Default is to use a total of   8 processors:
                                8 via shared-memory
                                1 via Linda
 Entering Link 1 = /share/apps/G09A02/g09/l1.exe PID=     15735.
  
 Copyright (c) 1988,1990,1992,1993,1995,1998,2003,2009, Gaussian, Inc.
                  All Rights Reserved.
  
 This is part of the Gaussian(R) 09 program.  It is based on
 the Gaussian(R) 03 system (copyright 2003, Gaussian, Inc.),
 the Gaussian(R) 98 system (copyright 1998, Gaussian, Inc.),
 the Gaussian(R) 94 system (copyright 1995, Gaussian, Inc.),
 the Gaussian 92(TM) system (copyright 1992, Gaussian, Inc.),
 the Gaussian 90(TM) system (copyright 1990, Gaussian, Inc.),
 the Gaussian 88(TM) system (copyright 1988, Gaussian, Inc.),
 the Gaussian 86(TM) system (copyright 1986, Carnegie Mellon
 University), and the Gaussian 82(TM) system (copyright 1983,
 Carnegie Mellon University). Gaussian is a federally registered
 trademark of Gaussian, Inc.
  
 This software contains proprietary and confidential information,
 including trade secrets, belonging to Gaussian, Inc.
  
 This software is provided under written license and may be
 used, copied, transmitted, or stored only in accord with that
 written license.
  
 The following legend is applicable only to US Government
 contracts under FAR:
  
                    RESTRICTED RIGHTS LEGEND
  
 Use, reproduction and disclosure by the US Government is
 subject to restrictions as set forth in subparagraphs (a)
 and (c) of the Commercial Computer Software - Restricted
 Rights clause in FAR 52.227-19.
  
 Gaussian, Inc.
 340 Quinnipiac St., Bldg. 40, Wallingford CT 06492
  
  
 ---------------------------------------------------------------
 Warning -- This program may not be used in any manner that
 competes with the business of Gaussian, Inc. or will provide
 assistance to any competitor of Gaussian, Inc.  The licensee
 of this program is prohibited from giving any competitor of
 Gaussian, Inc. access to this program.  By using this program,
 the user acknowledges that Gaussian, Inc. is engaged in the
 business of creating and licensing software in the field of
 computational chemistry and represents and warrants to the
 licensee that it is not a competitor of Gaussian, Inc. and that
 it will not use this program in any manner prohibited above.
 ---------------------------------------------------------------
  

 Cite this work as:
 Gaussian 09, Revision A.02,
 M. J. Frisch, G. W. Trucks, H. B. Schlegel, G. E. Scuseria, 
 M. A. Robb, J. R. Cheeseman, G. Scalmani, V. Barone, B. Mennucci, 
 G. A. Petersson, H. Nakatsuji, M. Caricato, X. Li, H. P. Hratchian, 
 A. F. Izmaylov, J. Bloino, G. Zheng, J. L. Sonnenberg, M. Hada, 
 M. Ehara, K. Toyota, R. Fukuda, J. Hasegawa, M. Ishida, T. Nakajima, 
 Y. Honda, O. Kitao, H. Nakai, T. Vreven, J. A. Montgomery, Jr., 
 J. E. Peralta, F. Ogliaro, M. Bearpark, J. J. Heyd, E. Brothers, 
 K. N. Kudin, V. N. Staroverov, R. Kobayashi, J. Normand, 
 K. Raghavachari, A. Rendell, J. C. Burant, S. S. Iyengar, J. Tomasi, 
 M. Cossi, N. Rega, J. M. Millam, M. Klene, J. E. Knox, J. B. Cross, 
 V. Bakken, C. Adamo, J. Jaramillo, R. Gomperts, R. E. Stratmann, 
 O. Yazyev, A. J. Austin, R. Cammi, C. Pomelli, J. W. Ochterski, 
 R. L. Martin, K. Morokuma, V. G. Zakrzewski, G. A. Voth, 
 P. Salvador, J. J. Dannenberg, S. Dapprich, A. D. Daniels, 
 O. Farkas, J. B. Foresman, J. V. Ortiz, J. Cioslowski, 
 and D. J. Fox, Gaussian, Inc., Wallingford CT, 2009.
 
 ******************************************
 Gaussian 09:  EM64L-G09RevA.02 11-Jun-2009
                 3-Nov-2010 
 ******************************************
 %chk=/state/partition1/wenxinzy/scratch/H_CH4_31.chk
 %nproc=8
 Will use up to    8 processors via shared memory.
 %mem=6000mb
 -------------------------------------------
 #p lc-blyp/6-311+g(3df,2p) nosymm scf=tight
 -------------------------------------------
 1/38=1/1;
 2/12=2,15=1,17=6,18=5,40=1/2;
 3/5=4,6=6,7=216,11=2,16=1,25=1,30=1,74=1000402/1,2,3;
 4//1;
 5/5=2,32=2,38=5/2;
 6/7=2,8=2,9=2,10=2,28=1/1;
 99/5=1,9=1/99;
 Leave Link    1 at Wed Nov  3 01:25:27 2010, MaxMem=  786432000 cpu:       0.4
 (Enter /share/apps/G09A02/g09/l101.exe)
 --------
 32 H_CH4
 --------
 Symbolic Z-matrix:
 Charge =  0 Multiplicity = 2
 C
 H1                   C    R1
 H2                   C    R2       H1   A1
 H3                   C    R2       H1   A1       H2    120.     0
 H4                   C    R2       H1   A1       H2   -120.     0
 H5                   H1   R3       C     180.     H2    0.       0
       Variables:
  R1                    1.08934                  
  R2                    1.08933                  
  A1                  109.46985                  
  R3                    2.5487                   
 
 NAtoms=      6 NQM=      6 NQMF=      0 NMic=      0 NMicF=      0 NTot=      6.
                    Isotopes and Nuclear Properties:
 (Nuclear quadrupole moments (NQMom) in fm**2, nuclear magnetic moments (NMagM)
  in nuclear magnetons)

  Atom         1           2           3           4           5           6
 IAtWgt=          12           1           1           1           1           1
 AtmWgt=  12.0000000   1.0078250   1.0078250   1.0078250   1.0078250   1.0078250
 NucSpn=           0           1           1           1           1           1
 AtZEff=   0.0000000   0.0000000   0.0000000   0.0000000   0.0000000   0.0000000
 NQMom=    0.0000000   0.0000000   0.0000000   0.0000000   0.0000000   0.0000000
 NMagM=    0.0000000   2.7928460   2.7928460   2.7928460   2.7928460   2.7928460
 Leave Link  101 at Wed Nov  3 01:25:27 2010, MaxMem=  786432000 cpu:       1.2
 (Enter /share/apps/G09A02/g09/l202.exe)
                          Input orientation:                          
 ---------------------------------------------------------------------
 Center     Atomic      Atomic             Coordinates (Angstroms)
 Number     Number       Type             X           Y           Z
 ---------------------------------------------------------------------
      1          6           0        0.000000    0.000000    0.000000
      2          1           0        0.000000    0.000000    1.089335
      3          1           0        1.027036    0.000000   -0.363084
      4          1           0       -0.513518   -0.889439   -0.363084
      5          1           0       -0.513518    0.889439   -0.363084
      6          1           0        0.000000    0.000000    3.638032
 ---------------------------------------------------------------------
                    Distance matrix (angstroms):
                    1          2          3          4          5
     1  C    0.000000
     2  H    1.089335   0.000000
     3  H    1.089327   1.778855   0.000000
     4  H    1.089327   1.778855   1.778879   0.000000
     5  H    1.089327   1.778855   1.778879   1.778879   0.000000
     6  H    3.638032   2.548697   4.130827   4.130827   4.130827
                    6
     6  H    0.000000
 Symmetry turned off by external request.
 Stoichiometry    CH5(2)
 Framework group  C3V[C3(HHC),3SGV(H)]
 Deg. of freedom     4
 Full point group                 C3V     NOp   6
 Rotational constants (GHZ):    158.4671912     32.1100815     32.1100815
 Leave Link  202 at Wed Nov  3 01:25:27 2010, MaxMem=  786432000 cpu:       0.2
 (Enter /share/apps/G09A02/g09/l301.exe)
 Standard basis: 6-311+G(3df,2p) (5D, 7F)
 Ernie: Thresh=  0.10000D-02 Tol=  0.10000D-05 Strict=F.
 Integral buffers will be    131072 words long.
 Raffenetti 2 integral format.
 Two-electron integral symmetry is turned off.
    84 basis functions,   113 primitive gaussians,    90 cartesian basis functions
     6 alpha electrons        5 beta electrons
       nuclear repulsion energy        14.9083457704 Hartrees.
 IExCor=10402 DFT=T Ex=LC-B+HF Corr=LYP ExCW=0 ScaHFX=  1.000000
 ScaDFX=  1.000000  1.000000  1.000000  1.000000 ScalE2=  1.000000  1.000000
 IRadAn=      0 IRanWt=     -1 IRanGd=            0 ICorTp=0
  HFx wShort=  0.000000 wLong=  0.470000 cFull=  0.000000 cShort=  0.000000 cLong=  1.000000
  DFx wShort=  0.000000 wLong=  0.470000 cFull=  0.000000 cShort=  0.000000 cLong=  1.000000
 NAtoms=    6 NActive=    6 NUniq=    6 SFac= 7.50D-01 NAtFMM=   80 NAOKFM=F Big=F
 Leave Link  301 at Wed Nov  3 01:25:27 2010, MaxMem=  786432000 cpu:       0.7
 (Enter /share/apps/G09A02/g09/l302.exe)
 NPDir=0 NMtPBC=     1 NCelOv=     1 NCel=       1 NClECP=     1 NCelD=      1
         NCelK=      1 NCelE2=     1 NClLst=     1 CellRange=     0.0.
 One-electron integrals computed using PRISM.
 NBasis=    84 RedAO= T  NBF=    84
 NBsUse=    84 1.00D-06 NBFU=    84
 Precomputing XC quadrature grid using
 IXCGrd= 2 IRadAn=           0 IRanWt=          -1 IRanGd=           0 AccXCQ= 1.00D-10.
 NRdTot=     384 NPtTot=       48740 NUsed=       51519 NTot=       51551
 NSgBfM=    90    90    90    90    90 NAtAll=     6     6.
 Leave Link  302 at Wed Nov  3 01:25:27 2010, MaxMem=  786432000 cpu:       2.5
 (Enter /share/apps/G09A02/g09/l303.exe)
 DipDrv:  MaxL=1.
 Leave Link  303 at Wed Nov  3 01:25:28 2010, MaxMem=  786432000 cpu:       0.4
 (Enter /share/apps/G09A02/g09/l401.exe)
 Harris functional with IExCor=10402 diagonalized for initial guess.
 ExpMin= 4.38D-02 ExpMax= 4.56D+03 ExpMxC= 6.82D+02 IAcc=2 IRadAn=         0 AccDes= 0.00D+00
 HarFok:  IExCor=10402 AccDes= 0.00D+00 IRadAn=         0 IDoV= 1
 ScaDFX=  1.000000  1.000000  1.000000  1.000000
 FoFCou: FMM=F IPFlag=           0 FMFlag=      100000 FMFlg1=           0
         NFxFlg=           0 DoJE=T BraDBF=F KetDBF=T FulRan=T
         Omega=  0.000000  0.000000  1.000000  0.000000  0.000000 ICntrl=     500 IOpCl=  0
         NMat0=    1 NMatS0=    1 NMatT0=    0 NMatD0=    1 NMtDS0=    0 NMtDT0=    0
         I1Cent=           4 NGrid=           0.
 Symmetry not used in FoFCou.
 Harris En= -38.5635860408709    
 Initial guess <Sx>= 0.0000 <Sy>= 0.0000 <Sz>= 0.5000 <S**2>= 0.7500 S= 0.5000
 Leave Link  401 at Wed Nov  3 01:25:28 2010, MaxMem=  786432000 cpu:       3.6
 (Enter /share/apps/G09A02/g09/l502.exe)
 UHF open shell SCF:
 Requested convergence on RMS density matrix=1.00D-08 within 128 cycles.
 Requested convergence on MAX density matrix=1.00D-06.
 Requested convergence on             energy=1.00D-06.
 No special actions if energy rises.
 Using DIIS extrapolation, IDIIS=  1040.
 Two-electron integral symmetry not used.
        51452 words used for storage of precomputed grid.
 IEnd=       95170 IEndB=       95170 NGot=   786432000 MDV=   786361661
 LenX=   786361661 LenY=   786353120
 Fock matrices will be formed incrementally for  20 cycles.

 Cycle   1  Pass 1  IDiag  1:
 FoFJK:  IHMeth= 1 ICntrl=     0 DoSepK=T KAlg= 1 I1Cent= 0 FoldK=F
 FoFCou: FMM=F IPFlag=           0 FMFlag=      100000 FMFlg1=           0
         NFxFlg=           0 DoJE=T BraDBF=F KetDBF=F FulRan=T
         Omega=  0.000000  0.000000  1.000000  0.000000  0.000000 ICntrl=     500 IOpCl=  0
         NMat0=    1 NMatS0=    1 NMatT0=    0 NMatD0=    1 NMtDS0=    0 NMtDT0=    0
         I1Cent=           0 NGrid=           0.
 Symmetry not used in FoFCou.
 E= -40.7985444039721    
 DIIS: error= 3.07D-02 at cycle   1 NSaved=   1.
 NSaved= 1 IEnMin= 1 EnMin= -40.7985444039721     IErMin= 1 ErrMin= 3.07D-02
 ErrMax= 3.07D-02 EMaxC= 1.00D-01 BMatC= 2.57D-01 BMatP= 2.57D-01
 IDIUse=3 WtCom= 6.93D-01 WtEn= 3.07D-01
 Coeff-Com:  0.100D+01
 Coeff-En:   0.100D+01
 Coeff:      0.100D+01
 Gap=     0.513 Goal=   None    Shift=    0.000
 Gap=     0.349 Goal=   None    Shift=    0.000
 GapD=    0.349 DampG=1.000 DampE=0.500 DampFc=0.5000 IDamp=-1.
 Damping current iteration by 5.00D-01
 RMSDP=4.77D-03 MaxDP=1.82D-01              OVMax= 1.58D-01

 Cycle   2  Pass 1  IDiag  1:
 RMSU=  1.84D-03    CP:  9.01D-01
 FoFJK:  IHMeth= 1 ICntrl=     0 DoSepK=T KAlg= 1 I1Cent= 0 FoldK=F
 E= -40.8407775307545     Delta-E=       -0.042233126782 Rises=F Damp=T
 DIIS: error= 1.11D-02 at cycle   2 NSaved=   2.
 NSaved= 2 IEnMin= 2 EnMin= -40.8407775307545     IErMin= 2 ErrMin= 1.11D-02
 ErrMax= 1.11D-02 EMaxC= 1.00D-01 BMatC= 2.19D-02 BMatP= 2.57D-01
 IDIUse=3 WtCom= 8.89D-01 WtEn= 1.11D-01
 Coeff-Com: -0.221D+00 0.122D+01
 Coeff-En:   0.000D+00 0.100D+01
 Coeff:     -0.197D+00 0.120D+01
 Gap=     0.561 Goal=   None    Shift=    0.000
 Gap=     0.470 Goal=   None    Shift=    0.000
 RMSDP=2.58D-03 MaxDP=1.13D-01 DE=-4.22D-02 OVMax= 4.63D-02

 Cycle   3  Pass 1  IDiag  1:
 RMSU=  9.04D-04    CP:  8.13D-01  2.01D+00
 FoFJK:  IHMeth= 1 ICntrl=     0 DoSepK=T KAlg= 1 I1Cent= 0 FoldK=F
 E= -40.8826497233015     Delta-E=       -0.041872192547 Rises=F Damp=F
 DIIS: error= 3.14D-03 at cycle   3 NSaved=   3.
 NSaved= 3 IEnMin= 3 EnMin= -40.8826497233015     IErMin= 3 ErrMin= 3.14D-03
 ErrMax= 3.14D-03 EMaxC= 1.00D-01 BMatC= 9.58D-04 BMatP= 2.19D-02
 IDIUse=3 WtCom= 9.69D-01 WtEn= 3.14D-02
 Coeff-Com:  0.397D-01-0.285D+00 0.124D+01
 Coeff-En:   0.000D+00 0.000D+00 0.100D+01
 Coeff:      0.385D-01-0.276D+00 0.124D+01
 Gap=     0.514 Goal=   None    Shift=    0.000
 Gap=     0.502 Goal=   None    Shift=    0.000
 RMSDP=6.29D-04 MaxDP=3.00D-02 DE=-4.19D-02 OVMax= 3.68D-02

 Cycle   4  Pass 1  IDiag  1:
 RMSU=  2.93D-04    CP:  7.96D-01  2.19D+00  1.30D+00
 FoFJK:  IHMeth= 1 ICntrl=     0 DoSepK=T KAlg= 1 I1Cent= 0 FoldK=F
 E= -40.8835931546111     Delta-E=       -0.000943431310 Rises=F Damp=F
 DIIS: error= 4.21D-04 at cycle   4 NSaved=   4.
 NSaved= 4 IEnMin= 4 EnMin= -40.8835931546111     IErMin= 4 ErrMin= 4.21D-04
 ErrMax= 4.21D-04 EMaxC= 1.00D-01 BMatC= 2.40D-05 BMatP= 9.58D-04
 IDIUse=3 WtCom= 9.96D-01 WtEn= 4.21D-03
 Coeff-Com: -0.428D-02-0.238D-02-0.110D+00 0.112D+01
 Coeff-En:   0.000D+00 0.000D+00 0.000D+00 0.100D+01
 Coeff:     -0.426D-02-0.237D-02-0.110D+00 0.112D+01
 Gap=     0.513 Goal=   None    Shift=    0.000
 Gap=     0.502 Goal=   None    Shift=    0.000
 RMSDP=9.21D-05 MaxDP=4.94D-03 DE=-9.43D-04 OVMax= 5.91D-03

 Cycle   5  Pass 1  IDiag  1:
 RMSU=  3.46D-05    CP:  7.94D-01  2.21D+00  1.33D+00  1.19D+00
 FoFJK:  IHMeth= 1 ICntrl=     0 DoSepK=T KAlg= 1 I1Cent= 0 FoldK=F
 E= -40.8836146430013     Delta-E=       -0.000021488390 Rises=F Damp=F
 DIIS: error= 7.07D-05 at cycle   5 NSaved=   5.
 NSaved= 5 IEnMin= 5 EnMin= -40.8836146430013     IErMin= 5 ErrMin= 7.07D-05
 ErrMax= 7.07D-05 EMaxC= 1.00D-01 BMatC= 3.01D-07 BMatP= 2.40D-05
 IDIUse=1 WtCom= 1.00D+00 WtEn= 0.00D+00
 Coeff-Com:  0.664D-03 0.324D-02 0.136D-01-0.263D+00 0.125D+01
 Coeff:      0.664D-03 0.324D-02 0.136D-01-0.263D+00 0.125D+01
 Gap=     0.513 Goal=   None    Shift=    0.000
 Gap=     0.502 Goal=   None    Shift=    0.000
 RMSDP=1.70D-05 MaxDP=6.81D-04 DE=-2.15D-05 OVMax= 5.07D-04

 Cycle   6  Pass 1  IDiag  1:
 RMSU=  2.05D-06    CP:  7.94D-01  2.21D+00  1.33D+00  1.21D+00  1.44D+00
 FoFJK:  IHMeth= 1 ICntrl=     0 DoSepK=T KAlg= 1 I1Cent= 0 FoldK=F
 E= -40.8836149471305     Delta-E=       -0.000000304129 Rises=F Damp=F
 DIIS: error= 1.49D-05 at cycle   6 NSaved=   6.
 NSaved= 6 IEnMin= 6 EnMin= -40.8836149471305     IErMin= 6 ErrMin= 1.49D-05
 ErrMax= 1.49D-05 EMaxC= 1.00D-01 BMatC= 1.59D-08 BMatP= 3.01D-07
 IDIUse=1 WtCom= 1.00D+00 WtEn= 0.00D+00
 Coeff-Com: -0.854D-04-0.106D-02-0.249D-02 0.674D-01-0.435D+00 0.137D+01
 Coeff:     -0.854D-04-0.106D-02-0.249D-02 0.674D-01-0.435D+00 0.137D+01
 Gap=     0.513 Goal=   None    Shift=    0.000
 Gap=     0.502 Goal=   None    Shift=    0.000
 RMSDP=3.38D-06 MaxDP=1.27D-04 DE=-3.04D-07 OVMax= 1.30D-04

 Cycle   7  Pass 1  IDiag  1:
 RMSU=  5.27D-07    CP:  7.94D-01  2.21D+00  1.33D+00  1.21D+00  1.51D+00
                    CP:  1.52D+00
 FoFJK:  IHMeth= 1 ICntrl=     0 DoSepK=T KAlg= 1 I1Cent= 0 FoldK=F
 E= -40.8836149640327     Delta-E=       -0.000000016902 Rises=F Damp=F
 DIIS: error= 4.44D-06 at cycle   7 NSaved=   7.
 NSaved= 7 IEnMin= 7 EnMin= -40.8836149640327     IErMin= 7 ErrMin= 4.44D-06
 ErrMax= 4.44D-06 EMaxC= 1.00D-01 BMatC= 1.26D-09 BMatP= 1.59D-08
 IDIUse=1 WtCom= 1.00D+00 WtEn= 0.00D+00
 Coeff-Com: -0.338D-04 0.429D-04-0.255D-03 0.851D-03 0.191D-01-0.265D+00
 Coeff-Com:  0.125D+01
 Coeff:     -0.338D-04 0.429D-04-0.255D-03 0.851D-03 0.191D-01-0.265D+00
 Coeff:      0.125D+01
 Gap=     0.513 Goal=   None    Shift=    0.000
 Gap=     0.502 Goal=   None    Shift=    0.000
 RMSDP=4.20D-07 MaxDP=8.71D-06 DE=-1.69D-08 OVMax= 2.66D-05

 Cycle   8  Pass 1  IDiag  1:
 RMSU=  1.33D-07    CP:  7.94D-01  2.21D+00  1.33D+00  1.21D+00  1.52D+00
                    CP:  1.64D+00  1.40D+00
 FoFJK:  IHMeth= 1 ICntrl=     0 DoSepK=T KAlg= 1 I1Cent= 0 FoldK=F
 E= -40.8836149651271     Delta-E=       -0.000000001094 Rises=F Damp=F
 DIIS: error= 1.67D-06 at cycle   8 NSaved=   8.
 NSaved= 8 IEnMin= 8 EnMin= -40.8836149651271     IErMin= 8 ErrMin= 1.67D-06
 ErrMax= 1.67D-06 EMaxC= 1.00D-01 BMatC= 1.60D-10 BMatP= 1.26D-09
 IDIUse=1 WtCom= 1.00D+00 WtEn= 0.00D+00
 Coeff-Com:  0.198D-04 0.124D-03 0.442D-03-0.929D-02 0.521D-01-0.103D+00
 Coeff-Com: -0.302D+00 0.136D+01
 Coeff:      0.198D-04 0.124D-03 0.442D-03-0.929D-02 0.521D-01-0.103D+00
 Coeff:     -0.302D+00 0.136D+01
 Gap=     0.513 Goal=   None    Shift=    0.000
 Gap=     0.502 Goal=   None    Shift=    0.000
 RMSDP=1.72D-07 MaxDP=3.57D-06 DE=-1.09D-09 OVMax= 1.02D-05

 Cycle   9  Pass 1  IDiag  1:
 RMSU=  2.72D-08    CP:  7.94D-01  2.21D+00  1.33D+00  1.21D+00  1.52D+00
                    CP:  1.66D+00  1.55D+00  1.67D+00
 FoFJK:  IHMeth= 1 ICntrl=     0 DoSepK=T KAlg= 1 I1Cent= 0 FoldK=F
 E= -40.8836149652652     Delta-E=       -0.000000000138 Rises=F Damp=F
 DIIS: error= 3.91D-07 at cycle   9 NSaved=   9.
 NSaved= 9 IEnMin= 9 EnMin= -40.8836149652652     IErMin= 9 ErrMin= 3.91D-07
 ErrMax= 3.91D-07 EMaxC= 1.00D-01 BMatC= 8.37D-12 BMatP= 1.60D-10
 IDIUse=1 WtCom= 1.00D+00 WtEn= 0.00D+00
 Coeff-Com: -0.152D-07-0.308D-04-0.837D-04 0.202D-02-0.128D-01 0.440D-01
 Coeff-Com: -0.354D-01-0.275D+00 0.128D+01
 Coeff:     -0.152D-07-0.308D-04-0.837D-04 0.202D-02-0.128D-01 0.440D-01
 Coeff:     -0.354D-01-0.275D+00 0.128D+01
 Gap=     0.513 Goal=   None    Shift=    0.000
 Gap=     0.502 Goal=   None    Shift=    0.000
 RMSDP=3.85D-08 MaxDP=9.58D-07 DE=-1.38D-10 OVMax= 1.99D-06

 Cycle  10  Pass 1  IDiag  1:
 RMSU=  1.06D-08    CP:  7.94D-01  2.21D+00  1.33D+00  1.21D+00  1.52D+00
                    CP:  1.66D+00  1.56D+00  1.82D+00  1.46D+00
 FoFJK:  IHMeth= 1 ICntrl=     0 DoSepK=T KAlg= 1 I1Cent= 0 FoldK=F
 E= -40.8836149652733     Delta-E=       -0.000000000008 Rises=F Damp=F
 DIIS: error= 7.37D-08 at cycle  10 NSaved=  10.
 NSaved=10 IEnMin=10 EnMin= -40.8836149652733     IErMin=10 ErrMin= 7.37D-08
 ErrMax= 7.37D-08 EMaxC= 1.00D-01 BMatC= 4.74D-13 BMatP= 8.37D-12
 IDIUse=1 WtCom= 1.00D+00 WtEn= 0.00D+00
 Coeff-Com: -0.994D-06 0.110D-04 0.199D-04-0.628D-03 0.426D-02-0.179D-01
 Coeff-Com:  0.320D-01 0.755D-01-0.629D+00 0.154D+01
 Coeff:     -0.994D-06 0.110D-04 0.199D-04-0.628D-03 0.426D-02-0.179D-01
 Coeff:      0.320D-01 0.755D-01-0.629D+00 0.154D+01
 Gap=     0.513 Goal=   None    Shift=    0.000
 Gap=     0.502 Goal=   None    Shift=    0.000
 RMSDP=8.96D-09 MaxDP=1.69D-07 DE=-8.10D-12 OVMax= 4.67D-07

 SCF Done:  E(ULC-B+HF-LYP) =  -40.8836149653     A.U. after   10 cycles
             Convg  =    0.8964D-08             -V/T =  2.0051
 <Sx>= 0.0000 <Sy>= 0.0000 <Sz>= 0.5000 <S**2>= 0.7501 S= 0.5000
 <L.S>= 0.000000000000E+00
 KE= 4.067687316846D+01 PE=-1.239691316696D+02 EE= 2.750029776545D+01
 Annihilation of the first spin contaminant:
 S**2 before annihilation     0.7501,   after     0.7500
 Leave Link  502 at Wed Nov  3 01:25:57 2010, MaxMem=  786432000 cpu:     233.3
 (Enter /share/apps/G09A02/g09/l601.exe)
 Copying SCF densities to generalized density rwf, IOpCl= 1 IROHF=0.

 **********************************************************************

            Population analysis using the SCF density.

 **********************************************************************

 Alpha  occ. eigenvalues --  -10.11336  -0.85968  -0.52835  -0.52531  -0.52531
 Alpha  occ. eigenvalues --   -0.44889
 Alpha virt. eigenvalues --    0.06392   0.09619   0.09619   0.10905   0.22658
 Alpha virt. eigenvalues --    0.22658   0.23782   0.27095   0.35817   0.36783
 Alpha virt. eigenvalues --    0.36783   0.41860   0.41860   0.43927   0.64658
 Alpha virt. eigenvalues --    0.64658   0.65558   0.69165   0.69165   0.71690
 Alpha virt. eigenvalues --    0.74212   0.80185   0.80270   0.80270   0.97882
 Alpha virt. eigenvalues --    0.99176   0.99261   0.99261   1.10259   1.10259
 Alpha virt. eigenvalues --    1.25243   1.25243   1.28376   1.40963   1.40963
 Alpha virt. eigenvalues --    1.42624   1.68883   2.06609   2.06609   2.07821
 Alpha virt. eigenvalues --    2.07821   2.07874   2.35006   2.52346   2.78766
 Alpha virt. eigenvalues --    2.78766   2.80700   3.08981   3.08981   3.09008
 Alpha virt. eigenvalues --    3.43906   3.43906   3.44829   3.64305   3.65161
 Alpha virt. eigenvalues --    3.65161   3.80467   3.80467   3.93452   4.07907
 Alpha virt. eigenvalues --    4.31080   4.31080   4.32932   4.35648   4.35648
 Alpha virt. eigenvalues --    4.58736   4.58743   4.58743   5.01490   5.89350
 Alpha virt. eigenvalues --    5.89365   5.89365   7.30292   7.30292   7.91467
 Alpha virt. eigenvalues --    7.91467   7.92238  24.29282
  Beta  occ. eigenvalues --  -10.11320  -0.85918  -0.52525  -0.52520  -0.52520
  Beta virt. eigenvalues --   -0.02342   0.06709   0.09516   0.09516   0.11359
  Beta virt. eigenvalues --    0.22647   0.22647   0.24153   0.27142   0.36770
  Beta virt. eigenvalues --    0.36770   0.39115   0.41838   0.41838   0.47157
  Beta virt. eigenvalues --    0.64714   0.64714   0.66370   0.71779   0.73308
  Beta virt. eigenvalues --    0.73308   0.75088   0.80244   0.80267   0.80267
  Beta virt. eigenvalues --    0.99177   0.99261   0.99261   0.99482   1.10256
  Beta virt. eigenvalues --    1.10256   1.25239   1.25239   1.28580   1.40968
  Beta virt. eigenvalues --    1.40968   1.42469   1.68850   2.06627   2.06627
  Beta virt. eigenvalues --    2.07845   2.07845   2.08022   2.52377   2.55820
  Beta virt. eigenvalues --    2.78781   2.78781   2.80743   3.09015   3.09018
  Beta virt. eigenvalues --    3.09018   3.43925   3.43925   3.44864   3.64734
  Beta virt. eigenvalues --    3.65224   3.65224   3.95966   3.95966   4.07278
  Beta virt. eigenvalues --    4.08549   4.31085   4.31085   4.33289   4.35646
  Beta virt. eigenvalues --    4.35647   4.58741   4.58753   4.58753   5.01531
  Beta virt. eigenvalues --    5.89375   5.89375   5.89378   7.30340   7.30340
  Beta virt. eigenvalues --    7.91496   7.91496   7.92302  24.29304
          Condensed to atoms (all electrons):
              1          2          3          4          5          6
     1  C    5.070104   0.395057   0.401803   0.401803   0.401803   0.002791
     2  H    0.395057   0.486975  -0.017267  -0.017268  -0.017268  -0.002077
     3  H    0.401803  -0.017267   0.483624  -0.017200  -0.017200  -0.000064
     4  H    0.401803  -0.017268  -0.017200   0.483624  -0.017200  -0.000064
     5  H    0.401803  -0.017268  -0.017200  -0.017200   0.483624  -0.000064
     6  H    0.002791  -0.002077  -0.000064  -0.000064  -0.000064   0.996878
 Mulliken atomic charges:
              1
     1  C   -0.673360
     2  H    0.171848
     3  H    0.166304
     4  H    0.166305
     5  H    0.166305
     6  H    0.002599
 Sum of Mulliken atomic charges =   0.00000
 Mulliken charges with hydrogens summed into heavy atoms:
              1
     1  C    0.000000
 Sum of Mulliken charges with hydrogens summed into heavy atoms =   0.00000
          Atomic-Atomic Spin Densities.
              1          2          3          4          5          6
     1  C    0.017070   0.001007  -0.000334  -0.000334  -0.000334   0.001887
     2  H    0.001007  -0.013109   0.000832   0.000832   0.000832  -0.003647
     3  H   -0.000334   0.000832  -0.000202  -0.000182  -0.000182  -0.000034
     4  H   -0.000334   0.000832  -0.000182  -0.000202  -0.000182  -0.000034
     5  H   -0.000334   0.000832  -0.000182  -0.000182  -0.000202  -0.000034
     6  H    0.001887  -0.003647  -0.000034  -0.000034  -0.000034   0.996461
 Mulliken atomic spin densities:
              1
     1  C    0.018962
     2  H   -0.013253
     3  H   -0.000102
     4  H   -0.000103
     5  H   -0.000103
     6  H    0.994598
 Sum of Mulliken atomic spin densities =   1.00000
 Electronic spatial extent (au):  <R**2>=             86.3550
 Charge=              0.0000 electrons
 Dipole moment (field-independent basis, Debye):
    X=              0.0000    Y=              0.0000    Z=              0.0050  Tot=              0.0050
 Quadrupole moment (field-independent basis, Debye-Ang):
   XX=             -9.9484   YY=             -9.9484   ZZ=             -9.8834
   XY=              0.0000   XZ=              0.0000   YZ=              0.0000
 Traceless Quadrupole moment (field-independent basis, Debye-Ang):
   XX=             -0.0217   YY=             -0.0217   ZZ=              0.0433
   XY=              0.0000   XZ=              0.0000   YZ=              0.0000
 Octapole moment (field-independent basis, Debye-Ang**2):
  XXX=              0.6628  YYY=              0.0000  ZZZ=            -14.2665  XYY=             -0.6628
  XXY=              0.0000  XXZ=             -5.6707  XZZ=              0.0000  YZZ=              0.0000
  YYZ=             -5.6707  XYZ=              0.0000
 Hexadecapole moment (field-independent basis, Debye-Ang**3):
 XXXX=            -18.4926 YYYY=            -18.4926 ZZZZ=           -129.4879 XXXY=              0.0000
 XXXZ=             -0.4219 YYYX=              0.0000 YYYZ=              0.0000 ZZZX=              0.0000
 ZZZY=              0.0000 XXYY=             -6.1642 XXZZ=            -25.3598 YYZZ=            -25.3598
 XXYZ=              0.0000 YYXZ=              0.4219 ZZXY=              0.0000
 N-N= 1.490834577042D+01 E-N=-1.847094475358D+02  KE= 6.076543169304D+01
                          Isotropic Fermi Contact Couplings
        Atom                 a.u.       MegaHertz       Gauss      10(-4) cm-1
     1  C(13)              0.00353       3.96509       1.41484       1.32261
     2  H(1)               0.00031       1.38968       0.49587       0.46355
     3  H(1)              -0.00004      -0.16730      -0.05970      -0.05581
     4  H(1)              -0.00004      -0.16727      -0.05969      -0.05580
     5  H(1)              -0.00004      -0.16727      -0.05969      -0.05580
     6  H(1)               0.28623    1279.39263     456.51909     426.75945
 --------------------------------------------------------
       Center         ----  Spin Dipole Couplings  ----
                      3XX-RR        3YY-RR        3ZZ-RR
 --------------------------------------------------------
     1   Atom       -0.008909     -0.008909      0.017819
     2   Atom       -0.010346     -0.010346      0.020692
     3   Atom       -0.001083     -0.002646      0.003729
     4   Atom       -0.002255     -0.001474      0.003729
     5   Atom       -0.002255     -0.001474      0.003729
     6   Atom        0.000151      0.000151     -0.000302
 --------------------------------------------------------
                        XY            XZ            YZ
 --------------------------------------------------------
     1   Atom        0.000000      0.000000      0.000000
     2   Atom        0.000000      0.000000      0.000000
     3   Atom        0.000000     -0.001805      0.000000
     4   Atom        0.000677      0.000903      0.001563
     5   Atom       -0.000677      0.000903     -0.001563
     6   Atom        0.000000      0.000000      0.000000
 --------------------------------------------------------


 ---------------------------------------------------------------------------------
              Anisotropic Spin Dipole Couplings in Principal Axis System
 ---------------------------------------------------------------------------------

       Atom             a.u.   MegaHertz   Gauss  10(-4) cm-1        Axes

              Baa    -0.0089    -1.196    -0.427    -0.399  0.0000  1.0000  0.0000
     1 C(13)  Bbb    -0.0089    -1.196    -0.427    -0.399  1.0000  0.0000  0.0000
              Bcc     0.0178     2.391     0.853     0.798  0.0000  0.0000  1.0000
 
              Baa    -0.0103    -5.520    -1.970    -1.841  1.0000  0.0000  0.0000
     2 H(1)   Bbb    -0.0103    -5.520    -1.970    -1.841  0.0000  1.0000  0.0000
              Bcc     0.0207    11.040     3.939     3.683  0.0000  0.0000  1.0000
 
              Baa    -0.0026    -1.412    -0.504    -0.471  0.0000  1.0000  0.0000
     3 H(1)   Bbb    -0.0017    -0.899    -0.321    -0.300  0.9486  0.0000  0.3163
              Bcc     0.0043     2.311     0.824     0.771 -0.3163  0.0000  0.9486
 
              Baa    -0.0026    -1.412    -0.504    -0.471  0.8660 -0.5000  0.0000
     4 H(1)   Bbb    -0.0017    -0.899    -0.321    -0.300  0.4743  0.8216 -0.3163
              Bcc     0.0043     2.311     0.824     0.771  0.1582  0.2740  0.9486
 
              Baa    -0.0026    -1.412    -0.504    -0.471  0.8660  0.5000  0.0000
     5 H(1)   Bbb    -0.0017    -0.899    -0.321    -0.300 -0.4743  0.8216  0.3163
              Bcc     0.0043     2.311     0.824     0.771  0.1582 -0.2740  0.9486
 
              Baa    -0.0003    -0.161    -0.058    -0.054  0.0000  0.0000  1.0000
     6 H(1)   Bbb     0.0002     0.081     0.029     0.027  1.0000  0.0000  0.0000
              Bcc     0.0002     0.081     0.029     0.027  0.0000  1.0000  0.0000
 

 ---------------------------------------------------------------------------------

 No NMR shielding tensors so no spin-rotation constants.
 Leave Link  601 at Wed Nov  3 01:25:58 2010, MaxMem=  786432000 cpu:       3.8
 (Enter /share/apps/G09A02/g09/l9999.exe)
 1\1\GINC-COMPUTE-0-7\SP\ULC-BLYP\6-311+G(3df,2p)\C1H5(2)\WENXINZY\03-N
 ov-2010\0\\#p lc-blyp/6-311+g(3df,2p) nosymm scf=tight\\32 H_CH4\\0,2\
 C\H,1,1.0893351\H,1,1.0893271,2,109.4698503\H,1,1.0893271,2,109.469850
 3,3,120.,0\H,1,1.0893271,2,109.4698503,3,-120.,0\H,2,2.5486965,1,180.,
 3,0.,0\\Version=EM64L-G09RevA.02\HF=-40.883615\S2=0.750075\S2-1=0.\S2A
 =0.75\RMSD=8.964e-09\Dipole=0.0000002,0.,0.001971\Quadrupole=-0.016105
 7,-0.016103,0.0322087,0.,-0.0000007,0.\PG=C03V [C3(H1H1C1),3SGV(H1)]\\
 @


 THE DIFFERENCE BETWEEN A NOOSE AND A HALO IS ONLY 12 INCHES.
 Job cpu time:  0 days  0 hours  4 minutes  7.1 seconds.
 File lengths (MBytes):  RWF=      9 Int=      0 D2E=      0 Chk=      1 Scr=      1
 Normal termination of Gaussian 09 at Wed Nov  3 01:25:58 2010.
