 Entering Gaussian System, Link 0=/share/apps/G09A02/g09/g09
 Input=./.script12553/Job_H_CH4_24.com
 Output=./.script12553/Job_H_CH4_24.log
 Initial command:
 /share/apps/G09A02/g09/l1.exe /state/partition1/wenxinzy/scratch/Gau-15027.inp -scrdir=/state/partition1/wenxinzy/scratch/
 Default is to use a total of   8 processors:
                                8 via shared-memory
                                1 via Linda
 Entering Link 1 = /share/apps/G09A02/g09/l1.exe PID=     15028.
  
 Copyright (c) 1988,1990,1992,1993,1995,1998,2003,2009, Gaussian, Inc.
                  All Rights Reserved.
  
 This is part of the Gaussian(R) 09 program.  It is based on
 the Gaussian(R) 03 system (copyright 2003, Gaussian, Inc.),
 the Gaussian(R) 98 system (copyright 1998, Gaussian, Inc.),
 the Gaussian(R) 94 system (copyright 1995, Gaussian, Inc.),
 the Gaussian 92(TM) system (copyright 1992, Gaussian, Inc.),
 the Gaussian 90(TM) system (copyright 1990, Gaussian, Inc.),
 the Gaussian 88(TM) system (copyright 1988, Gaussian, Inc.),
 the Gaussian 86(TM) system (copyright 1986, Carnegie Mellon
 University), and the Gaussian 82(TM) system (copyright 1983,
 Carnegie Mellon University). Gaussian is a federally registered
 trademark of Gaussian, Inc.
  
 This software contains proprietary and confidential information,
 including trade secrets, belonging to Gaussian, Inc.
  
 This software is provided under written license and may be
 used, copied, transmitted, or stored only in accord with that
 written license.
  
 The following legend is applicable only to US Government
 contracts under FAR:
  
                    RESTRICTED RIGHTS LEGEND
  
 Use, reproduction and disclosure by the US Government is
 subject to restrictions as set forth in subparagraphs (a)
 and (c) of the Commercial Computer Software - Restricted
 Rights clause in FAR 52.227-19.
  
 Gaussian, Inc.
 340 Quinnipiac St., Bldg. 40, Wallingford CT 06492
  
  
 ---------------------------------------------------------------
 Warning -- This program may not be used in any manner that
 competes with the business of Gaussian, Inc. or will provide
 assistance to any competitor of Gaussian, Inc.  The licensee
 of this program is prohibited from giving any competitor of
 Gaussian, Inc. access to this program.  By using this program,
 the user acknowledges that Gaussian, Inc. is engaged in the
 business of creating and licensing software in the field of
 computational chemistry and represents and warrants to the
 licensee that it is not a competitor of Gaussian, Inc. and that
 it will not use this program in any manner prohibited above.
 ---------------------------------------------------------------
  

 Cite this work as:
 Gaussian 09, Revision A.02,
 M. J. Frisch, G. W. Trucks, H. B. Schlegel, G. E. Scuseria, 
 M. A. Robb, J. R. Cheeseman, G. Scalmani, V. Barone, B. Mennucci, 
 G. A. Petersson, H. Nakatsuji, M. Caricato, X. Li, H. P. Hratchian, 
 A. F. Izmaylov, J. Bloino, G. Zheng, J. L. Sonnenberg, M. Hada, 
 M. Ehara, K. Toyota, R. Fukuda, J. Hasegawa, M. Ishida, T. Nakajima, 
 Y. Honda, O. Kitao, H. Nakai, T. Vreven, J. A. Montgomery, Jr., 
 J. E. Peralta, F. Ogliaro, M. Bearpark, J. J. Heyd, E. Brothers, 
 K. N. Kudin, V. N. Staroverov, R. Kobayashi, J. Normand, 
 K. Raghavachari, A. Rendell, J. C. Burant, S. S. Iyengar, J. Tomasi, 
 M. Cossi, N. Rega, J. M. Millam, M. Klene, J. E. Knox, J. B. Cross, 
 V. Bakken, C. Adamo, J. Jaramillo, R. Gomperts, R. E. Stratmann, 
 O. Yazyev, A. J. Austin, R. Cammi, C. Pomelli, J. W. Ochterski, 
 R. L. Martin, K. Morokuma, V. G. Zakrzewski, G. A. Voth, 
 P. Salvador, J. J. Dannenberg, S. Dapprich, A. D. Daniels, 
 O. Farkas, J. B. Foresman, J. V. Ortiz, J. Cioslowski, 
 and D. J. Fox, Gaussian, Inc., Wallingford CT, 2009.
 
 ******************************************
 Gaussian 09:  EM64L-G09RevA.02 11-Jun-2009
                 3-Nov-2010 
 ******************************************
 %chk=/state/partition1/wenxinzy/scratch/H_CH4_24.chk
 %nproc=8
 Will use up to    8 processors via shared memory.
 %mem=6000mb
 -------------------------------------------
 #p lc-blyp/6-311+g(3df,2p) nosymm scf=tight
 -------------------------------------------
 1/38=1/1;
 2/12=2,15=1,17=6,18=5,40=1/2;
 3/5=4,6=6,7=216,11=2,16=1,25=1,30=1,74=1000402/1,2,3;
 4//1;
 5/5=2,32=2,38=5/2;
 6/7=2,8=2,9=2,10=2,28=1/1;
 99/5=1,9=1/99;
 Leave Link    1 at Wed Nov  3 01:21:38 2010, MaxMem=  786432000 cpu:       0.3
 (Enter /share/apps/G09A02/g09/l101.exe)
 --------
 25 H_CH4
 --------
 Symbolic Z-matrix:
 Charge =  0 Multiplicity = 2
 C
 H1                   C    R1
 H2                   C    R2       H1   A1
 H3                   C    R2       H1   A1       H2    120.     0
 H4                   C    R2       H1   A1       H2   -120.     0
 H5                   H1   R3       C     180.     H2    0.       0
       Variables:
  R1                    1.08977                  
  R2                    1.08939                  
  A1                  109.46558                  
  R3                    2.22171                  
 
 NAtoms=      6 NQM=      6 NQMF=      0 NMic=      0 NMicF=      0 NTot=      6.
                    Isotopes and Nuclear Properties:
 (Nuclear quadrupole moments (NQMom) in fm**2, nuclear magnetic moments (NMagM)
  in nuclear magnetons)

  Atom         1           2           3           4           5           6
 IAtWgt=          12           1           1           1           1           1
 AtmWgt=  12.0000000   1.0078250   1.0078250   1.0078250   1.0078250   1.0078250
 NucSpn=           0           1           1           1           1           1
 AtZEff=   0.0000000   0.0000000   0.0000000   0.0000000   0.0000000   0.0000000
 NQMom=    0.0000000   0.0000000   0.0000000   0.0000000   0.0000000   0.0000000
 NMagM=    0.0000000   2.7928460   2.7928460   2.7928460   2.7928460   2.7928460
 Leave Link  101 at Wed Nov  3 01:21:38 2010, MaxMem=  786432000 cpu:       1.0
 (Enter /share/apps/G09A02/g09/l202.exe)
                          Input orientation:                          
 ---------------------------------------------------------------------
 Center     Atomic      Atomic             Coordinates (Angstroms)
 Number     Number       Type             X           Y           Z
 ---------------------------------------------------------------------
      1          6           0        0.000000    0.000000    0.000000
      2          1           0        0.000000    0.000000    1.089766
      3          1           0        1.027121    0.000000   -0.363028
      4          1           0       -0.513561   -0.889513   -0.363028
      5          1           0       -0.513561    0.889513   -0.363028
      6          1           0        0.000000    0.000000    3.311480
 ---------------------------------------------------------------------
                    Distance matrix (angstroms):
                    1          2          3          4          5
     1  C    0.000000
     2  H    1.089766   0.000000
     3  H    1.089389   1.779210   0.000000
     4  H    1.089389   1.779210   1.779026   0.000000
     5  H    1.089389   1.779210   1.779026   1.779026   0.000000
     6  H    3.311480   2.221715   3.815363   3.815363   3.815363
                    6
     6  H    0.000000
 Symmetry turned off by external request.
 Stoichiometry    CH5(2)
 Framework group  C3V[C3(HHC),3SGV(H)]
 Deg. of freedom     4
 Full point group                 C3V     NOp   6
 Rotational constants (GHZ):    158.4408941     37.1931628     37.1931628
 Leave Link  202 at Wed Nov  3 01:21:38 2010, MaxMem=  786432000 cpu:       0.1
 (Enter /share/apps/G09A02/g09/l301.exe)
 Standard basis: 6-311+G(3df,2p) (5D, 7F)
 Ernie: Thresh=  0.10000D-02 Tol=  0.10000D-05 Strict=F.
 Integral buffers will be    131072 words long.
 Raffenetti 2 integral format.
 Two-electron integral symmetry is turned off.
    84 basis functions,   113 primitive gaussians,    90 cartesian basis functions
     6 alpha electrons        5 beta electrons
       nuclear repulsion energy        15.0548429613 Hartrees.
 IExCor=10402 DFT=T Ex=LC-B+HF Corr=LYP ExCW=0 ScaHFX=  1.000000
 ScaDFX=  1.000000  1.000000  1.000000  1.000000 ScalE2=  1.000000  1.000000
 IRadAn=      0 IRanWt=     -1 IRanGd=            0 ICorTp=0
  HFx wShort=  0.000000 wLong=  0.470000 cFull=  0.000000 cShort=  0.000000 cLong=  1.000000
  DFx wShort=  0.000000 wLong=  0.470000 cFull=  0.000000 cShort=  0.000000 cLong=  1.000000
 NAtoms=    6 NActive=    6 NUniq=    6 SFac= 7.50D-01 NAtFMM=   80 NAOKFM=F Big=F
 Leave Link  301 at Wed Nov  3 01:21:39 2010, MaxMem=  786432000 cpu:       0.7
 (Enter /share/apps/G09A02/g09/l302.exe)
 NPDir=0 NMtPBC=     1 NCelOv=     1 NCel=       1 NClECP=     1 NCelD=      1
         NCelK=      1 NCelE2=     1 NClLst=     1 CellRange=     0.0.
 One-electron integrals computed using PRISM.
 NBasis=    84 RedAO= T  NBF=    84
 NBsUse=    84 1.00D-06 NBFU=    84
 Precomputing XC quadrature grid using
 IXCGrd= 2 IRadAn=           0 IRanWt=          -1 IRanGd=           0 AccXCQ= 1.00D-10.
 NRdTot=     384 NPtTot=       48740 NUsed=       51519 NTot=       51551
 NSgBfM=    90    90    90    90    90 NAtAll=     6     6.
 Leave Link  302 at Wed Nov  3 01:21:39 2010, MaxMem=  786432000 cpu:       2.6
 (Enter /share/apps/G09A02/g09/l303.exe)
 DipDrv:  MaxL=1.
 Leave Link  303 at Wed Nov  3 01:21:39 2010, MaxMem=  786432000 cpu:       0.9
 (Enter /share/apps/G09A02/g09/l401.exe)
 Harris functional with IExCor=10402 diagonalized for initial guess.
 ExpMin= 4.38D-02 ExpMax= 4.56D+03 ExpMxC= 6.82D+02 IAcc=2 IRadAn=         0 AccDes= 0.00D+00
 HarFok:  IExCor=10402 AccDes= 0.00D+00 IRadAn=         0 IDoV= 1
 ScaDFX=  1.000000  1.000000  1.000000  1.000000
 FoFCou: FMM=F IPFlag=           0 FMFlag=      100000 FMFlg1=           0
         NFxFlg=           0 DoJE=T BraDBF=F KetDBF=T FulRan=T
         Omega=  0.000000  0.000000  1.000000  0.000000  0.000000 ICntrl=     500 IOpCl=  0
         NMat0=    1 NMatS0=    1 NMatT0=    0 NMatD0=    1 NMtDS0=    0 NMtDT0=    0
         I1Cent=           4 NGrid=           0.
 Symmetry not used in FoFCou.
 Harris En= -38.5636399401427    
 Initial guess <Sx>= 0.0000 <Sy>= 0.0000 <Sz>= 0.5000 <S**2>= 0.7500 S= 0.5000
 Leave Link  401 at Wed Nov  3 01:21:40 2010, MaxMem=  786432000 cpu:       3.6
 (Enter /share/apps/G09A02/g09/l502.exe)
 UHF open shell SCF:
 Requested convergence on RMS density matrix=1.00D-08 within 128 cycles.
 Requested convergence on MAX density matrix=1.00D-06.
 Requested convergence on             energy=1.00D-06.
 No special actions if energy rises.
 Using DIIS extrapolation, IDIIS=  1040.
 Two-electron integral symmetry not used.
        51452 words used for storage of precomputed grid.
 IEnd=       95170 IEndB=       95170 NGot=   786432000 MDV=   786361661
 LenX=   786361661 LenY=   786353120
 Fock matrices will be formed incrementally for  20 cycles.

 Cycle   1  Pass 1  IDiag  1:
 FoFJK:  IHMeth= 1 ICntrl=     0 DoSepK=T KAlg= 1 I1Cent= 0 FoldK=F
 FoFCou: FMM=F IPFlag=           0 FMFlag=      100000 FMFlg1=           0
         NFxFlg=           0 DoJE=T BraDBF=F KetDBF=F FulRan=T
         Omega=  0.000000  0.000000  1.000000  0.000000  0.000000 ICntrl=     500 IOpCl=  0
         NMat0=    1 NMatS0=    1 NMatT0=    0 NMatD0=    1 NMtDS0=    0 NMtDT0=    0
         I1Cent=           0 NGrid=           0.
 Symmetry not used in FoFCou.
 E= -40.7969412334653    
 DIIS: error= 3.48D-02 at cycle   1 NSaved=   1.
 NSaved= 1 IEnMin= 1 EnMin= -40.7969412334653     IErMin= 1 ErrMin= 3.48D-02
 ErrMax= 3.48D-02 EMaxC= 1.00D-01 BMatC= 2.60D-01 BMatP= 2.60D-01
 IDIUse=3 WtCom= 6.52D-01 WtEn= 3.48D-01
 Coeff-Com:  0.100D+01
 Coeff-En:   0.100D+01
 Coeff:      0.100D+01
 Gap=     0.510 Goal=   None    Shift=    0.000
 Gap=     0.350 Goal=   None    Shift=    0.000
 GapD=    0.350 DampG=1.000 DampE=0.500 DampFc=0.5000 IDamp=-1.
 Damping current iteration by 5.00D-01
 RMSDP=5.23D-03 MaxDP=1.96D-01              OVMax= 1.60D-01

 Cycle   2  Pass 1  IDiag  1:
 RMSU=  1.98D-03    CP:  8.87D-01
 FoFJK:  IHMeth= 1 ICntrl=     0 DoSepK=T KAlg= 1 I1Cent= 0 FoldK=F
 E= -40.8398596615697     Delta-E=       -0.042918428104 Rises=F Damp=T
 DIIS: error= 1.08D-02 at cycle   2 NSaved=   2.
 NSaved= 2 IEnMin= 2 EnMin= -40.8398596615697     IErMin= 2 ErrMin= 1.08D-02
 ErrMax= 1.08D-02 EMaxC= 1.00D-01 BMatC= 2.19D-02 BMatP= 2.60D-01
 IDIUse=3 WtCom= 8.92D-01 WtEn= 1.08D-01
 Coeff-Com: -0.218D+00 0.122D+01
 Coeff-En:   0.000D+00 0.100D+01
 Coeff:     -0.195D+00 0.119D+01
 Gap=     0.548 Goal=   None    Shift=    0.000
 Gap=     0.472 Goal=   None    Shift=    0.000
 RMSDP=2.91D-03 MaxDP=1.22D-01 DE=-4.29D-02 OVMax= 4.92D-02

 Cycle   3  Pass 1  IDiag  1:
 RMSU=  9.45D-04    CP:  7.81D-01  2.05D+00
 FoFJK:  IHMeth= 1 ICntrl=     0 DoSepK=T KAlg= 1 I1Cent= 0 FoldK=F
 E= -40.8824187010972     Delta-E=       -0.042559039527 Rises=F Damp=F
 DIIS: error= 2.63D-03 at cycle   3 NSaved=   3.
 NSaved= 3 IEnMin= 3 EnMin= -40.8824187010972     IErMin= 3 ErrMin= 2.63D-03
 ErrMax= 2.63D-03 EMaxC= 1.00D-01 BMatC= 9.87D-04 BMatP= 2.19D-02
 IDIUse=3 WtCom= 9.74D-01 WtEn= 2.63D-02
 Coeff-Com:  0.380D-01-0.281D+00 0.124D+01
 Coeff-En:   0.000D+00 0.000D+00 0.100D+01
 Coeff:      0.370D-01-0.273D+00 0.124D+01
 Gap=     0.511 Goal=   None    Shift=    0.000
 Gap=     0.503 Goal=   None    Shift=    0.000
 RMSDP=6.98D-04 MaxDP=2.94D-02 DE=-4.26D-02 OVMax= 3.66D-02

 Cycle   4  Pass 1  IDiag  1:
 RMSU=  3.31D-04    CP:  7.60D-01  2.24D+00  1.30D+00
 FoFJK:  IHMeth= 1 ICntrl=     0 DoSepK=T KAlg= 1 I1Cent= 0 FoldK=F
 E= -40.8834074621530     Delta-E=       -0.000988761056 Rises=F Damp=F
 DIIS: error= 3.95D-04 at cycle   4 NSaved=   4.
 NSaved= 4 IEnMin= 4 EnMin= -40.8834074621530     IErMin= 4 ErrMin= 3.95D-04
 ErrMax= 3.95D-04 EMaxC= 1.00D-01 BMatC= 2.95D-05 BMatP= 9.87D-04
 IDIUse=3 WtCom= 9.96D-01 WtEn= 3.95D-03
 Coeff-Com: -0.537D-02 0.132D-02-0.128D+00 0.113D+01
 Coeff-En:   0.000D+00 0.000D+00 0.000D+00 0.100D+01
 Coeff:     -0.535D-02 0.132D-02-0.128D+00 0.113D+01
 Gap=     0.510 Goal=   None    Shift=    0.000
 Gap=     0.503 Goal=   None    Shift=    0.000
 RMSDP=1.05D-04 MaxDP=5.18D-03 DE=-9.89D-04 OVMax= 6.18D-03

 Cycle   5  Pass 1  IDiag  1:
 RMSU=  3.03D-05    CP:  7.58D-01  2.26D+00  1.34D+00  1.19D+00
 FoFJK:  IHMeth= 1 ICntrl=     0 DoSepK=T KAlg= 1 I1Cent= 0 FoldK=F
 E= -40.8834349038569     Delta-E=       -0.000027441704 Rises=F Damp=F
 DIIS: error= 1.21D-04 at cycle   5 NSaved=   5.
 NSaved= 5 IEnMin= 5 EnMin= -40.8834349038569     IErMin= 5 ErrMin= 1.21D-04
 ErrMax= 1.21D-04 EMaxC= 1.00D-01 BMatC= 6.02D-07 BMatP= 2.95D-05
 IDIUse=3 WtCom= 9.99D-01 WtEn= 1.21D-03
 Coeff-Com:  0.939D-03 0.364D-02 0.187D-01-0.317D+00 0.129D+01
 Coeff-En:   0.000D+00 0.000D+00 0.000D+00 0.000D+00 0.100D+01
 Coeff:      0.938D-03 0.364D-02 0.187D-01-0.317D+00 0.129D+01
 Gap=     0.510 Goal=   None    Shift=    0.000
 Gap=     0.503 Goal=   None    Shift=    0.000
 RMSDP=1.59D-05 MaxDP=5.47D-04 DE=-2.74D-05 OVMax= 1.05D-03

 Cycle   6  Pass 1  IDiag  1:
 RMSU=  2.22D-06    CP:  7.58D-01  2.26D+00  1.34D+00  1.20D+00  1.45D+00
 FoFJK:  IHMeth= 1 ICntrl=     0 DoSepK=T KAlg= 1 I1Cent= 0 FoldK=F
 E= -40.8834356360089     Delta-E=       -0.000000732152 Rises=F Damp=F
 DIIS: error= 3.27D-05 at cycle   6 NSaved=   6.
 NSaved= 6 IEnMin= 6 EnMin= -40.8834356360089     IErMin= 6 ErrMin= 3.27D-05
 ErrMax= 3.27D-05 EMaxC= 1.00D-01 BMatC= 3.71D-08 BMatP= 6.02D-07
 IDIUse=1 WtCom= 1.00D+00 WtEn= 0.00D+00
 Coeff-Com: -0.211D-03-0.150D-02-0.443D-02 0.102D+00-0.556D+00 0.146D+01
 Coeff:     -0.211D-03-0.150D-02-0.443D-02 0.102D+00-0.556D+00 0.146D+01
 Gap=     0.510 Goal=   None    Shift=    0.000
 Gap=     0.503 Goal=   None    Shift=    0.000
 RMSDP=3.08D-06 MaxDP=7.40D-05 DE=-7.32D-07 OVMax= 2.77D-04

 Cycle   7  Pass 1  IDiag  1:
 RMSU=  7.79D-07    CP:  7.58D-01  2.26D+00  1.34D+00  1.20D+00  1.51D+00
                    CP:  1.63D+00
 FoFJK:  IHMeth= 1 ICntrl=     0 DoSepK=T KAlg= 1 I1Cent= 0 FoldK=F
 E= -40.8834356802224     Delta-E=       -0.000000044213 Rises=F Damp=F
 DIIS: error= 6.15D-06 at cycle   7 NSaved=   7.
 NSaved= 7 IEnMin= 7 EnMin= -40.8834356802224     IErMin= 7 ErrMin= 6.15D-06
 ErrMax= 6.15D-06 EMaxC= 1.00D-01 BMatC= 2.58D-09 BMatP= 3.71D-08
 IDIUse=1 WtCom= 1.00D+00 WtEn= 0.00D+00
 Coeff-Com: -0.385D-05 0.302D-03 0.615D-03-0.173D-01 0.116D+00-0.457D+00
 Coeff-Com:  0.136D+01
 Coeff:     -0.385D-05 0.302D-03 0.615D-03-0.173D-01 0.116D+00-0.457D+00
 Coeff:      0.136D+01
 Gap=     0.510 Goal=   None    Shift=    0.000
 Gap=     0.503 Goal=   None    Shift=    0.000
 RMSDP=6.12D-07 MaxDP=1.24D-05 DE=-4.42D-08 OVMax= 4.07D-05

 Cycle   8  Pass 1  IDiag  1:
 RMSU=  1.76D-07    CP:  7.58D-01  2.26D+00  1.34D+00  1.20D+00  1.50D+00
                    CP:  1.76D+00  1.44D+00
 FoFJK:  IHMeth= 1 ICntrl=     0 DoSepK=T KAlg= 1 I1Cent= 0 FoldK=F
 E= -40.8834356824388     Delta-E=       -0.000000002216 Rises=F Damp=F
 DIIS: error= 2.21D-06 at cycle   8 NSaved=   8.
 NSaved= 8 IEnMin= 8 EnMin= -40.8834356824388     IErMin= 8 ErrMin= 2.21D-06
 ErrMax= 2.21D-06 EMaxC= 1.00D-01 BMatC= 2.48D-10 BMatP= 2.58D-09
 IDIUse=1 WtCom= 1.00D+00 WtEn= 0.00D+00
 Coeff-Com:  0.252D-04 0.113D-03 0.384D-03-0.828D-02 0.436D-01-0.887D-01
 Coeff-Com: -0.185D+00 0.124D+01
 Coeff:      0.252D-04 0.113D-03 0.384D-03-0.828D-02 0.436D-01-0.887D-01
 Coeff:     -0.185D+00 0.124D+01
 Gap=     0.510 Goal=   None    Shift=    0.000
 Gap=     0.503 Goal=   None    Shift=    0.000
 RMSDP=1.80D-07 MaxDP=4.51D-06 DE=-2.22D-09 OVMax= 1.17D-05

 Cycle   9  Pass 1  IDiag  1:
 RMSU=  3.89D-08    CP:  7.58D-01  2.26D+00  1.34D+00  1.20D+00  1.50D+00
                    CP:  1.78D+00  1.56D+00  1.44D+00
 FoFJK:  IHMeth= 1 ICntrl=     0 DoSepK=T KAlg= 1 I1Cent= 0 FoldK=F
 E= -40.8834356826363     Delta-E=       -0.000000000197 Rises=F Damp=F
 DIIS: error= 4.89D-07 at cycle   9 NSaved=   9.
 NSaved= 9 IEnMin= 9 EnMin= -40.8834356826363     IErMin= 9 ErrMin= 4.89D-07
 ErrMax= 4.89D-07 EMaxC= 1.00D-01 BMatC= 1.63D-11 BMatP= 2.48D-10
 IDIUse=1 WtCom= 1.00D+00 WtEn= 0.00D+00
 Coeff-Com: -0.102D-05-0.402D-04-0.106D-03 0.254D-02-0.155D-01 0.478D-01
 Coeff-Com: -0.690D-01-0.219D+00 0.125D+01
 Coeff:     -0.102D-05-0.402D-04-0.106D-03 0.254D-02-0.155D-01 0.478D-01
 Coeff:     -0.690D-01-0.219D+00 0.125D+01
 Gap=     0.510 Goal=   None    Shift=    0.000
 Gap=     0.503 Goal=   None    Shift=    0.000
 RMSDP=4.72D-08 MaxDP=1.37D-06 DE=-1.97D-10 OVMax= 2.79D-06

 Cycle  10  Pass 1  IDiag  1:
 RMSU=  1.14D-08    CP:  7.58D-01  2.26D+00  1.34D+00  1.20D+00  1.50D+00
                    CP:  1.79D+00  1.57D+00  1.54D+00  1.49D+00
 FoFJK:  IHMeth= 1 ICntrl=     0 DoSepK=T KAlg= 1 I1Cent= 0 FoldK=F
 E= -40.8834356826502     Delta-E=       -0.000000000014 Rises=F Damp=F
 DIIS: error= 9.79D-08 at cycle  10 NSaved=  10.
 NSaved=10 IEnMin=10 EnMin= -40.8834356826502     IErMin=10 ErrMin= 9.79D-08
 ErrMax= 9.79D-08 EMaxC= 1.00D-01 BMatC= 9.83D-13 BMatP= 1.63D-11
 IDIUse=1 WtCom= 1.00D+00 WtEn= 0.00D+00
 Coeff-Com: -0.114D-05 0.115D-04 0.207D-04-0.623D-03 0.412D-02-0.147D-01
 Coeff-Com:  0.364D-01 0.252D-01-0.499D+00 0.145D+01
 Coeff:     -0.114D-05 0.115D-04 0.207D-04-0.623D-03 0.412D-02-0.147D-01
 Coeff:      0.364D-01 0.252D-01-0.499D+00 0.145D+01
 Gap=     0.510 Goal=   None    Shift=    0.000
 Gap=     0.503 Goal=   None    Shift=    0.000
 RMSDP=1.42D-08 MaxDP=3.07D-07 DE=-1.40D-11 OVMax= 6.39D-07

 Cycle  11  Pass 1  IDiag  1:
 RMSU=  3.38D-09    CP:  7.58D-01  2.26D+00  1.34D+00  1.20D+00  1.50D+00
                    CP:  1.79D+00  1.57D+00  1.55D+00  1.62D+00  1.50D+00
 FoFJK:  IHMeth= 1 ICntrl=     0 DoSepK=T KAlg= 1 I1Cent= 0 FoldK=F
 E= -40.8834356826511     Delta-E=       -0.000000000001 Rises=F Damp=F
 DIIS: error= 2.21D-08 at cycle  11 NSaved=  11.
 NSaved=11 IEnMin=11 EnMin= -40.8834356826511     IErMin=11 ErrMin= 2.21D-08
 ErrMax= 2.21D-08 EMaxC= 1.00D-01 BMatC= 6.94D-14 BMatP= 9.83D-13
 IDIUse=1 WtCom= 1.00D+00 WtEn= 0.00D+00
 Coeff-Com:  0.555D-06-0.386D-05-0.363D-05 0.178D-03-0.123D-02 0.461D-02
 Coeff-Com: -0.136D-01 0.386D-03 0.155D+00-0.636D+00 0.149D+01
 Coeff:      0.555D-06-0.386D-05-0.363D-05 0.178D-03-0.123D-02 0.461D-02
 Coeff:     -0.136D-01 0.386D-03 0.155D+00-0.636D+00 0.149D+01
 Gap=     0.510 Goal=   None    Shift=    0.000
 Gap=     0.503 Goal=   None    Shift=    0.000
 RMSDP=3.69D-09 MaxDP=5.14D-08 DE=-8.95D-13 OVMax= 1.36D-07

 SCF Done:  E(ULC-B+HF-LYP) =  -40.8834356827     A.U. after   11 cycles
             Convg  =    0.3686D-08             -V/T =  2.0050
 <Sx>= 0.0000 <Sy>= 0.0000 <Sz>= 0.5000 <S**2>= 0.7502 S= 0.5001
 <L.S>= 0.000000000000E+00
 KE= 4.067986011501D+01 PE=-1.242611258296D+02 EE= 2.764298707057D+01
 Annihilation of the first spin contaminant:
 S**2 before annihilation     0.7502,   after     0.7500
 Leave Link  502 at Wed Nov  3 01:22:12 2010, MaxMem=  786432000 cpu:     257.1
 (Enter /share/apps/G09A02/g09/l601.exe)
 Copying SCF densities to generalized density rwf, IOpCl= 1 IROHF=0.

 **********************************************************************

            Population analysis using the SCF density.

 **********************************************************************

 Alpha  occ. eigenvalues --  -10.11360  -0.86024  -0.53296  -0.52556  -0.52556
 Alpha  occ. eigenvalues --   -0.44523
 Alpha virt. eigenvalues --    0.06507   0.09568   0.09568   0.11048   0.22622
 Alpha virt. eigenvalues --    0.22622   0.24948   0.26831   0.35526   0.36644
 Alpha virt. eigenvalues --    0.36644   0.41866   0.41866   0.44729   0.64525
 Alpha virt. eigenvalues --    0.64525   0.68379   0.69338   0.69338   0.70280
 Alpha virt. eigenvalues --    0.75855   0.80238   0.80238   0.80493   0.98537
 Alpha virt. eigenvalues --    0.99155   0.99636   0.99636   1.10258   1.10258
 Alpha virt. eigenvalues --    1.25356   1.25356   1.31729   1.40907   1.40907
 Alpha virt. eigenvalues --    1.42721   1.68987   2.06596   2.06596   2.07126
 Alpha virt. eigenvalues --    2.07758   2.07758   2.38208   2.53666   2.78736
 Alpha virt. eigenvalues --    2.78736   2.81127   3.08948   3.08948   3.08982
 Alpha virt. eigenvalues --    3.43828   3.43828   3.45309   3.64057   3.65096
 Alpha virt. eigenvalues --    3.65096   3.81153   3.81153   4.01605   4.08595
 Alpha virt. eigenvalues --    4.31087   4.31087   4.33719   4.35596   4.35596
 Alpha virt. eigenvalues --    4.58715   4.58739   4.58739   5.03210   5.89320
 Alpha virt. eigenvalues --    5.89320   5.89409   7.30249   7.30249   7.91414
 Alpha virt. eigenvalues --    7.91415   7.92405  24.29161
  Beta  occ. eigenvalues --  -10.11324  -0.85915  -0.52555  -0.52532  -0.52532
  Beta virt. eigenvalues --   -0.02279   0.06869   0.09457   0.09458   0.11543
  Beta virt. eigenvalues --    0.22618   0.22618   0.25358   0.27015   0.36638
  Beta virt. eigenvalues --    0.36638   0.38749   0.41832   0.41832   0.48076
  Beta virt. eigenvalues --    0.64649   0.64649   0.68246   0.70787   0.73348
  Beta virt. eigenvalues --    0.73348   0.77011   0.80230   0.80230   0.80723
  Beta virt. eigenvalues --    0.99155   0.99691   0.99691   0.99787   1.10259
  Beta virt. eigenvalues --    1.10260   1.25358   1.25358   1.32120   1.40923
  Beta virt. eigenvalues --    1.40923   1.42954   1.69070   2.06639   2.06639
  Beta virt. eigenvalues --    2.07815   2.07816   2.07886   2.53075   2.58751
  Beta virt. eigenvalues --    2.78771   2.78771   2.81263   3.08997   3.09046
  Beta virt. eigenvalues --    3.09046   3.43887   3.43887   3.45538   3.65048
  Beta virt. eigenvalues --    3.65197   3.65197   3.96529   3.96529   4.07192
  Beta virt. eigenvalues --    4.16331   4.31107   4.31107   4.34390   4.35591
  Beta virt. eigenvalues --    4.35591   4.58727   4.58762   4.58762   5.03368
  Beta virt. eigenvalues --    5.89342   5.89342   5.89481   7.30357   7.30357
  Beta virt. eigenvalues --    7.91480   7.91480   7.92552  24.29210
          Condensed to atoms (all electrons):
              1          2          3          4          5          6
     1  C    5.082591   0.392950   0.402219   0.402220   0.402220   0.001980
     2  H    0.392950   0.479921  -0.016955  -0.016955  -0.016955  -0.005379
     3  H    0.402219  -0.016955   0.483006  -0.017295  -0.017295  -0.000013
     4  H    0.402220  -0.016955  -0.017295   0.483005  -0.017295  -0.000013
     5  H    0.402220  -0.016955  -0.017295  -0.017295   0.483005  -0.000013
     6  H    0.001980  -0.005379  -0.000013  -0.000013  -0.000013   1.001632
 Mulliken atomic charges:
              1
     1  C   -0.684179
     2  H    0.183373
     3  H    0.166333
     4  H    0.166334
     5  H    0.166334
     6  H    0.001805
 Sum of Mulliken atomic charges =   0.00000
 Mulliken charges with hydrogens summed into heavy atoms:
              1
     1  C    0.000000
 Sum of Mulliken charges with hydrogens summed into heavy atoms =   0.00000
          Atomic-Atomic Spin Densities.
              1          2          3          4          5          6
     1  C    0.026936   0.002502  -0.000318  -0.000318  -0.000318  -0.000272
     2  H    0.002502  -0.014446   0.000827   0.000827   0.000827  -0.009235
     3  H   -0.000318   0.000827  -0.000375  -0.000182  -0.000182   0.000062
     4  H   -0.000318   0.000827  -0.000182  -0.000376  -0.000182   0.000062
     5  H   -0.000318   0.000827  -0.000182  -0.000182  -0.000376   0.000062
     6  H   -0.000272  -0.009235   0.000062   0.000062   0.000062   1.000310
 Mulliken atomic spin densities:
              1
     1  C    0.028212
     2  H   -0.018697
     3  H   -0.000167
     4  H   -0.000168
     5  H   -0.000168
     6  H    0.990988
 Sum of Mulliken atomic spin densities =   1.00000
 Electronic spatial extent (au):  <R**2>=             78.3153
 Charge=              0.0000 electrons
 Dipole moment (field-independent basis, Debye):
    X=              0.0000    Y=              0.0000    Z=             -0.0151  Tot=              0.0151
 Quadrupole moment (field-independent basis, Debye-Ang):
   XX=             -9.9388   YY=             -9.9388   ZZ=             -9.9826
   XY=              0.0000   XZ=              0.0000   YZ=              0.0000
 Traceless Quadrupole moment (field-independent basis, Debye-Ang):
   XX=              0.0146   YY=              0.0146   ZZ=             -0.0292
   XY=              0.0000   XZ=              0.0000   YZ=              0.0000
 Octapole moment (field-independent basis, Debye-Ang**2):
  XXX=              0.6632  YYY=              0.0000  ZZZ=            -13.3110  XYY=             -0.6632
  XXY=              0.0000  XXZ=             -5.1919  XZZ=              0.0000  YZZ=              0.0000
  YYZ=             -5.1919  XYZ=              0.0000
 Hexadecapole moment (field-independent basis, Debye-Ang**3):
 XXXX=            -18.4758 YYYY=            -18.4757 ZZZZ=           -111.9835 XXXY=              0.0000
 XXXZ=             -0.4225 YYYX=              0.0000 YYYZ=              0.0000 ZZZX=              0.0000
 ZZZY=              0.0000 XXYY=             -6.1586 XXZZ=            -22.1098 YYZZ=            -22.1098
 XXYZ=              0.0000 YYXZ=              0.4225 ZZXY=              0.0000
 N-N= 1.505484296135D+01 E-N=-1.850510269986D+02  KE= 6.076028289536D+01
                          Isotropic Fermi Contact Couplings
        Atom                 a.u.       MegaHertz       Gauss      10(-4) cm-1
     1  C(13)              0.00857       9.63119       3.43665       3.21262
     2  H(1)               0.00023       1.00981       0.36033       0.33684
     3  H(1)              -0.00010      -0.45953      -0.16397      -0.15328
     4  H(1)              -0.00010      -0.45948      -0.16396      -0.15327
     5  H(1)              -0.00010      -0.45948      -0.16396      -0.15327
     6  H(1)               0.28635    1279.97181     456.72575     426.95264
 --------------------------------------------------------
       Center         ----  Spin Dipole Couplings  ----
                      3XX-RR        3YY-RR        3ZZ-RR
 --------------------------------------------------------
     1   Atom       -0.016875     -0.016875      0.033751
     2   Atom       -0.016419     -0.016419      0.032838
     3   Atom       -0.000697     -0.003867      0.004564
     4   Atom       -0.003075     -0.001489      0.004564
     5   Atom       -0.003075     -0.001489      0.004564
     6   Atom        0.000413      0.000413     -0.000826
 --------------------------------------------------------
                        XY            XZ            YZ
 --------------------------------------------------------
     1   Atom        0.000000      0.000000      0.000000
     2   Atom        0.000000      0.000000      0.000000
     3   Atom        0.000000     -0.002713      0.000000
     4   Atom        0.001373      0.001357      0.002350
     5   Atom       -0.001373      0.001357     -0.002350
     6   Atom        0.000000      0.000000      0.000000
 --------------------------------------------------------


 ---------------------------------------------------------------------------------
              Anisotropic Spin Dipole Couplings in Principal Axis System
 ---------------------------------------------------------------------------------

       Atom             a.u.   MegaHertz   Gauss  10(-4) cm-1        Axes

              Baa    -0.0169    -2.265    -0.808    -0.755  0.0000  1.0000  0.0000
     1 C(13)  Bbb    -0.0169    -2.265    -0.808    -0.755  1.0000  0.0000  0.0000
              Bcc     0.0338     4.529     1.616     1.511  0.0000  0.0000  1.0000
 
              Baa    -0.0164    -8.760    -3.126    -2.922  1.0000  0.0000  0.0000
     2 H(1)   Bbb    -0.0164    -8.760    -3.126    -2.922  0.0000  1.0000  0.0000
              Bcc     0.0328    17.521     6.252     5.844  0.0000  0.0000  1.0000
 
              Baa    -0.0039    -2.063    -0.736    -0.688  0.0000  1.0000  0.0000
     3 H(1)   Bbb    -0.0018    -0.985    -0.351    -0.328  0.9209  0.0000  0.3898
              Bcc     0.0057     3.048     1.088     1.017 -0.3898  0.0000  0.9209
 
              Baa    -0.0039    -2.063    -0.736    -0.688  0.8660 -0.5000  0.0000
     4 H(1)   Bbb    -0.0018    -0.985    -0.351    -0.328  0.4604  0.7975 -0.3898
              Bcc     0.0057     3.048     1.088     1.017  0.1949  0.3376  0.9209
 
              Baa    -0.0039    -2.063    -0.736    -0.688  0.8660  0.5000  0.0000
     5 H(1)   Bbb    -0.0018    -0.985    -0.351    -0.328 -0.4604  0.7975  0.3898
              Bcc     0.0057     3.048     1.088     1.017  0.1949 -0.3376  0.9209
 
              Baa    -0.0008    -0.441    -0.157    -0.147  0.0000  0.0000  1.0000
     6 H(1)   Bbb     0.0004     0.220     0.079     0.073  1.0000  0.0000  0.0000
              Bcc     0.0004     0.220     0.079     0.073  0.0000  1.0000  0.0000
 

 ---------------------------------------------------------------------------------

 No NMR shielding tensors so no spin-rotation constants.
 Leave Link  601 at Wed Nov  3 01:22:12 2010, MaxMem=  786432000 cpu:       3.9
 (Enter /share/apps/G09A02/g09/l9999.exe)
 1\1\GINC-COMPUTE-0-7\SP\ULC-BLYP\6-311+G(3df,2p)\C1H5(2)\WENXINZY\03-N
 ov-2010\0\\#p lc-blyp/6-311+g(3df,2p) nosymm scf=tight\\25 H_CH4\\0,2\
 C\H,1,1.0897657\H,1,1.0893888,2,109.4655807\H,1,1.0893888,2,109.465580
 7,3,120.,0\H,1,1.0893888,2,109.4655807,3,-120.,0\H,2,2.2217147,1,180.,
 3,0.,0\\Version=EM64L-G09RevA.02\HF=-40.8834357\S2=0.750214\S2-1=0.\S2
 A=0.75\RMSD=3.686e-09\Dipole=0.0000002,0.,-0.0059523\Quadrupole=0.0108
 447,0.0108476,-0.0216923,0.,-0.0000002,0.\PG=C03V [C3(H1H1C1),3SGV(H1)
 ]\\@


  DISAPPOINTMENT IS THE NURSE OF WISDOM.               
                              SIR BOYLE ROCHE                 
 Job cpu time:  0 days  0 hours  4 minutes 31.9 seconds.
 File lengths (MBytes):  RWF=      9 Int=      0 D2E=      0 Chk=      1 Scr=      1
 Normal termination of Gaussian 09 at Wed Nov  3 01:22:12 2010.
