 Entering Gaussian System, Link 0=/share/apps/G09A02/g09/g09
 Input=./.script12553/Job_H_CH4_9.com
 Output=./.script12553/Job_H_CH4_9.log
 Initial command:
 /share/apps/G09A02/g09/l1.exe /state/partition1/wenxinzy/scratch/Gau-13490.inp -scrdir=/state/partition1/wenxinzy/scratch/
 Default is to use a total of   8 processors:
                                8 via shared-memory
                                1 via Linda
 Entering Link 1 = /share/apps/G09A02/g09/l1.exe PID=     13491.
  
 Copyright (c) 1988,1990,1992,1993,1995,1998,2003,2009, Gaussian, Inc.
                  All Rights Reserved.
  
 This is part of the Gaussian(R) 09 program.  It is based on
 the Gaussian(R) 03 system (copyright 2003, Gaussian, Inc.),
 the Gaussian(R) 98 system (copyright 1998, Gaussian, Inc.),
 the Gaussian(R) 94 system (copyright 1995, Gaussian, Inc.),
 the Gaussian 92(TM) system (copyright 1992, Gaussian, Inc.),
 the Gaussian 90(TM) system (copyright 1990, Gaussian, Inc.),
 the Gaussian 88(TM) system (copyright 1988, Gaussian, Inc.),
 the Gaussian 86(TM) system (copyright 1986, Carnegie Mellon
 University), and the Gaussian 82(TM) system (copyright 1983,
 Carnegie Mellon University). Gaussian is a federally registered
 trademark of Gaussian, Inc.
  
 This software contains proprietary and confidential information,
 including trade secrets, belonging to Gaussian, Inc.
  
 This software is provided under written license and may be
 used, copied, transmitted, or stored only in accord with that
 written license.
  
 The following legend is applicable only to US Government
 contracts under FAR:
  
                    RESTRICTED RIGHTS LEGEND
  
 Use, reproduction and disclosure by the US Government is
 subject to restrictions as set forth in subparagraphs (a)
 and (c) of the Commercial Computer Software - Restricted
 Rights clause in FAR 52.227-19.
  
 Gaussian, Inc.
 340 Quinnipiac St., Bldg. 40, Wallingford CT 06492
  
  
 ---------------------------------------------------------------
 Warning -- This program may not be used in any manner that
 competes with the business of Gaussian, Inc. or will provide
 assistance to any competitor of Gaussian, Inc.  The licensee
 of this program is prohibited from giving any competitor of
 Gaussian, Inc. access to this program.  By using this program,
 the user acknowledges that Gaussian, Inc. is engaged in the
 business of creating and licensing software in the field of
 computational chemistry and represents and warrants to the
 licensee that it is not a competitor of Gaussian, Inc. and that
 it will not use this program in any manner prohibited above.
 ---------------------------------------------------------------
  

 Cite this work as:
 Gaussian 09, Revision A.02,
 M. J. Frisch, G. W. Trucks, H. B. Schlegel, G. E. Scuseria, 
 M. A. Robb, J. R. Cheeseman, G. Scalmani, V. Barone, B. Mennucci, 
 G. A. Petersson, H. Nakatsuji, M. Caricato, X. Li, H. P. Hratchian, 
 A. F. Izmaylov, J. Bloino, G. Zheng, J. L. Sonnenberg, M. Hada, 
 M. Ehara, K. Toyota, R. Fukuda, J. Hasegawa, M. Ishida, T. Nakajima, 
 Y. Honda, O. Kitao, H. Nakai, T. Vreven, J. A. Montgomery, Jr., 
 J. E. Peralta, F. Ogliaro, M. Bearpark, J. J. Heyd, E. Brothers, 
 K. N. Kudin, V. N. Staroverov, R. Kobayashi, J. Normand, 
 K. Raghavachari, A. Rendell, J. C. Burant, S. S. Iyengar, J. Tomasi, 
 M. Cossi, N. Rega, J. M. Millam, M. Klene, J. E. Knox, J. B. Cross, 
 V. Bakken, C. Adamo, J. Jaramillo, R. Gomperts, R. E. Stratmann, 
 O. Yazyev, A. J. Austin, R. Cammi, C. Pomelli, J. W. Ochterski, 
 R. L. Martin, K. Morokuma, V. G. Zakrzewski, G. A. Voth, 
 P. Salvador, J. J. Dannenberg, S. Dapprich, A. D. Daniels, 
 O. Farkas, J. B. Foresman, J. V. Ortiz, J. Cioslowski, 
 and D. J. Fox, Gaussian, Inc., Wallingford CT, 2009.
 
 ******************************************
 Gaussian 09:  EM64L-G09RevA.02 11-Jun-2009
                 3-Nov-2010 
 ******************************************
 %chk=/state/partition1/wenxinzy/scratch/H_CH4_9.chk
 %nproc=8
 Will use up to    8 processors via shared memory.
 %mem=6000mb
 -------------------------------------------
 #p lc-blyp/6-311+g(3df,2p) nosymm scf=tight
 -------------------------------------------
 1/38=1/1;
 2/12=2,15=1,17=6,18=5,40=1/2;
 3/5=4,6=6,7=216,11=2,16=1,25=1,30=1,74=1000402/1,2,3;
 4//1;
 5/5=2,32=2,38=5/2;
 6/7=2,8=2,9=2,10=2,28=1/1;
 99/5=1,9=1/99;
 Leave Link    1 at Wed Nov  3 01:12:48 2010, MaxMem=  786432000 cpu:       0.4
 (Enter /share/apps/G09A02/g09/l101.exe)
 --------
 10 H_CH4
 --------
 Symbolic Z-matrix:
 Charge =  0 Multiplicity = 2
 C
 H1                   C    R1
 H2                   C    R2       H1   A1
 H3                   C    R2       H1   A1       H2    120.     0
 H4                   C    R2       H1   A1       H2   -120.     0
 H5                   H1   R3       C     180.     H2    0.       0
       Variables:
  R1                    1.11067                  
  R2                    1.0894                   
  A1                  108.89106                  
  R3                    1.38943                  
 
 NAtoms=      6 NQM=      6 NQMF=      0 NMic=      0 NMicF=      0 NTot=      6.
                    Isotopes and Nuclear Properties:
 (Nuclear quadrupole moments (NQMom) in fm**2, nuclear magnetic moments (NMagM)
  in nuclear magnetons)

  Atom         1           2           3           4           5           6
 IAtWgt=          12           1           1           1           1           1
 AtmWgt=  12.0000000   1.0078250   1.0078250   1.0078250   1.0078250   1.0078250
 NucSpn=           0           1           1           1           1           1
 AtZEff=   0.0000000   0.0000000   0.0000000   0.0000000   0.0000000   0.0000000
 NQMom=    0.0000000   0.0000000   0.0000000   0.0000000   0.0000000   0.0000000
 NMagM=    0.0000000   2.7928460   2.7928460   2.7928460   2.7928460   2.7928460
 Leave Link  101 at Wed Nov  3 01:12:48 2010, MaxMem=  786432000 cpu:       1.2
 (Enter /share/apps/G09A02/g09/l202.exe)
                          Input orientation:                          
 ---------------------------------------------------------------------
 Center     Atomic      Atomic             Coordinates (Angstroms)
 Number     Number       Type             X           Y           Z
 ---------------------------------------------------------------------
      1          6           0        0.000000    0.000000    0.000000
      2          1           0        0.000000    0.000000    1.110667
      3          1           0        1.030718    0.000000   -0.352714
      4          1           0       -0.515359   -0.892628   -0.352714
      5          1           0       -0.515359    0.892628   -0.352714
      6          1           0        0.000000    0.000000    2.500102
 ---------------------------------------------------------------------
                    Distance matrix (angstroms):
                    1          2          3          4          5
     1  C    0.000000
     2  H    1.110667   0.000000
     3  H    1.089397   1.789934   0.000000
     4  H    1.089397   1.789934   1.785256   0.000000
     5  H    1.089397   1.789934   1.785256   1.785256   0.000000
     6  H    2.500102   1.389434   3.033304   3.033304   3.033304
                    6
     6  H    0.000000
 Symmetry turned off by external request.
 Stoichiometry    CH5(2)
 Framework group  C3V[C3(HHC),3SGV(H)]
 Deg. of freedom     4
 Full point group                 C3V     NOp   6
 Rotational constants (GHZ):    157.3371374     55.3147936     55.3147936
 Leave Link  202 at Wed Nov  3 01:12:48 2010, MaxMem=  786432000 cpu:       0.0
 (Enter /share/apps/G09A02/g09/l301.exe)
 Standard basis: 6-311+G(3df,2p) (5D, 7F)
 Ernie: Thresh=  0.10000D-02 Tol=  0.10000D-05 Strict=F.
 Integral buffers will be    131072 words long.
 Raffenetti 2 integral format.
 Two-electron integral symmetry is turned off.
    84 basis functions,   113 primitive gaussians,    90 cartesian basis functions
     6 alpha electrons        5 beta electrons
       nuclear repulsion energy        15.5526072024 Hartrees.
 IExCor=10402 DFT=T Ex=LC-B+HF Corr=LYP ExCW=0 ScaHFX=  1.000000
 ScaDFX=  1.000000  1.000000  1.000000  1.000000 ScalE2=  1.000000  1.000000
 IRadAn=      0 IRanWt=     -1 IRanGd=            0 ICorTp=0
  HFx wShort=  0.000000 wLong=  0.470000 cFull=  0.000000 cShort=  0.000000 cLong=  1.000000
  DFx wShort=  0.000000 wLong=  0.470000 cFull=  0.000000 cShort=  0.000000 cLong=  1.000000
 NAtoms=    6 NActive=    6 NUniq=    6 SFac= 7.50D-01 NAtFMM=   80 NAOKFM=F Big=F
 Leave Link  301 at Wed Nov  3 01:12:48 2010, MaxMem=  786432000 cpu:       0.7
 (Enter /share/apps/G09A02/g09/l302.exe)
 NPDir=0 NMtPBC=     1 NCelOv=     1 NCel=       1 NClECP=     1 NCelD=      1
         NCelK=      1 NCelE2=     1 NClLst=     1 CellRange=     0.0.
 One-electron integrals computed using PRISM.
 NBasis=    84 RedAO= T  NBF=    84
 NBsUse=    84 1.00D-06 NBFU=    84
 Precomputing XC quadrature grid using
 IXCGrd= 2 IRadAn=           0 IRanWt=          -1 IRanGd=           0 AccXCQ= 1.00D-10.
 NRdTot=     383 NPtTot=       48740 NUsed=       51512 NTot=       51544
 NSgBfM=    90    90    90    90    90 NAtAll=     6     6.
 Leave Link  302 at Wed Nov  3 01:12:49 2010, MaxMem=  786432000 cpu:       2.5
 (Enter /share/apps/G09A02/g09/l303.exe)
 DipDrv:  MaxL=1.
 Leave Link  303 at Wed Nov  3 01:12:49 2010, MaxMem=  786432000 cpu:       0.5
 (Enter /share/apps/G09A02/g09/l401.exe)
 Harris functional with IExCor=10402 diagonalized for initial guess.
 ExpMin= 4.38D-02 ExpMax= 4.56D+03 ExpMxC= 6.82D+02 IAcc=2 IRadAn=         0 AccDes= 0.00D+00
 HarFok:  IExCor=10402 AccDes= 0.00D+00 IRadAn=         0 IDoV= 1
 ScaDFX=  1.000000  1.000000  1.000000  1.000000
 FoFCou: FMM=F IPFlag=           0 FMFlag=      100000 FMFlg1=           0
         NFxFlg=           0 DoJE=T BraDBF=F KetDBF=T FulRan=T
         Omega=  0.000000  0.000000  1.000000  0.000000  0.000000 ICntrl=     500 IOpCl=  0
         NMat0=    1 NMatS0=    1 NMatT0=    0 NMatD0=    1 NMtDS0=    0 NMtDT0=    0
         I1Cent=           4 NGrid=           0.
 Symmetry not used in FoFCou.
 Harris En= -38.5554169785410    
 Initial guess <Sx>= 0.0000 <Sy>= 0.0000 <Sz>= 0.5000 <S**2>= 0.7500 S= 0.5000
 Leave Link  401 at Wed Nov  3 01:12:49 2010, MaxMem=  786432000 cpu:       3.7
 (Enter /share/apps/G09A02/g09/l502.exe)
 UHF open shell SCF:
 Requested convergence on RMS density matrix=1.00D-08 within 128 cycles.
 Requested convergence on MAX density matrix=1.00D-06.
 Requested convergence on             energy=1.00D-06.
 No special actions if energy rises.
 Using DIIS extrapolation, IDIIS=  1040.
 Two-electron integral symmetry not used.
        51445 words used for storage of precomputed grid.
 IEnd=       95163 IEndB=       95163 NGot=   786432000 MDV=   786361668
 LenX=   786361668 LenY=   786353127
 Fock matrices will be formed incrementally for  20 cycles.

 Cycle   1  Pass 1  IDiag  1:
 FoFJK:  IHMeth= 1 ICntrl=     0 DoSepK=T KAlg= 1 I1Cent= 0 FoldK=F
 FoFCou: FMM=F IPFlag=           0 FMFlag=      100000 FMFlg1=           0
         NFxFlg=           0 DoJE=T BraDBF=F KetDBF=F FulRan=T
         Omega=  0.000000  0.000000  1.000000  0.000000  0.000000 ICntrl=     500 IOpCl=  0
         NMat0=    1 NMatS0=    1 NMatT0=    0 NMatD0=    1 NMtDS0=    0 NMtDT0=    0
         I1Cent=           0 NGrid=           0.
 Symmetry not used in FoFCou.
 E= -40.7973658682749    
 DIIS: error= 3.26D-02 at cycle   1 NSaved=   1.
 NSaved= 1 IEnMin= 1 EnMin= -40.7973658682749     IErMin= 1 ErrMin= 3.26D-02
 ErrMax= 3.26D-02 EMaxC= 1.00D-01 BMatC= 2.46D-01 BMatP= 2.46D-01
 IDIUse=3 WtCom= 6.74D-01 WtEn= 3.26D-01
 Coeff-Com:  0.100D+01
 Coeff-En:   0.100D+01
 Coeff:      0.100D+01
 Gap=     0.466 Goal=   None    Shift=    0.000
 Gap=     0.394 Goal=   None    Shift=    0.000
 GapD=    0.394 DampG=1.000 DampE=0.500 DampFc=0.5000 IDamp=-1.
 Damping current iteration by 5.00D-01
 RMSDP=6.44D-03 MaxDP=2.23D-01              OVMax= 1.69D-01

 Cycle   2  Pass 1  IDiag  1:
 RMSU=  2.26D-03    CP:  8.58D-01
 FoFJK:  IHMeth= 1 ICntrl=     0 DoSepK=T KAlg= 1 I1Cent= 0 FoldK=F
 E= -40.8369380861136     Delta-E=       -0.039572217839 Rises=F Damp=T
 DIIS: error= 1.14D-02 at cycle   2 NSaved=   2.
 NSaved= 2 IEnMin= 2 EnMin= -40.8369380861136     IErMin= 2 ErrMin= 1.14D-02
 ErrMax= 1.14D-02 EMaxC= 1.00D-01 BMatC= 1.88D-02 BMatP= 2.46D-01
 IDIUse=3 WtCom= 8.86D-01 WtEn= 1.14D-01
 Coeff-Com: -0.201D+00 0.120D+01
 Coeff-En:   0.000D+00 0.100D+01
 Coeff:     -0.178D+00 0.118D+01
 Gap=     0.479 Goal=   None    Shift=    0.000
 Gap=     0.501 Goal=   None    Shift=    0.000
 RMSDP=4.09D-03 MaxDP=1.49D-01 DE=-3.96D-02 OVMax= 6.07D-02

 Cycle   3  Pass 1  IDiag  1:
 RMSU=  1.26D-03    CP:  6.88D-01  2.17D+00
 FoFJK:  IHMeth= 1 ICntrl=     0 DoSepK=T KAlg= 1 I1Cent= 0 FoldK=F
 E= -40.8758230024945     Delta-E=       -0.038884916381 Rises=F Damp=F
 DIIS: error= 2.97D-03 at cycle   3 NSaved=   3.
 NSaved= 3 IEnMin= 3 EnMin= -40.8758230024945     IErMin= 3 ErrMin= 2.97D-03
 ErrMax= 2.97D-03 EMaxC= 1.00D-01 BMatC= 1.15D-03 BMatP= 1.88D-02
 IDIUse=3 WtCom= 9.70D-01 WtEn= 2.97D-02
 Coeff-Com:  0.281D-01-0.250D+00 0.122D+01
 Coeff-En:   0.000D+00 0.000D+00 0.100D+01
 Coeff:      0.272D-01-0.242D+00 0.121D+01
 Gap=     0.465 Goal=   None    Shift=    0.000
 Gap=     0.523 Goal=   None    Shift=    0.000
 RMSDP=1.06D-03 MaxDP=3.80D-02 DE=-3.89D-02 OVMax= 3.52D-02

 Cycle   4  Pass 1  IDiag  1:
 RMSU=  4.36D-04    CP:  6.49D-01  2.40D+00  1.35D+00
 FoFJK:  IHMeth= 1 ICntrl=     0 DoSepK=T KAlg= 1 I1Cent= 0 FoldK=F
 E= -40.8770383420954     Delta-E=       -0.001215339601 Rises=F Damp=F
 DIIS: error= 8.56D-04 at cycle   4 NSaved=   4.
 NSaved= 4 IEnMin= 4 EnMin= -40.8770383420954     IErMin= 4 ErrMin= 8.56D-04
 ErrMax= 8.56D-04 EMaxC= 1.00D-01 BMatC= 9.97D-05 BMatP= 1.15D-03
 IDIUse=3 WtCom= 9.91D-01 WtEn= 8.56D-03
 Coeff-Com: -0.809D-02 0.906D-02-0.265D+00 0.126D+01
 Coeff-En:   0.000D+00 0.000D+00 0.000D+00 0.100D+01
 Coeff:     -0.802D-02 0.898D-02-0.263D+00 0.126D+01
 Gap=     0.468 Goal=   None    Shift=    0.000
 Gap=     0.521 Goal=   None    Shift=    0.000
 RMSDP=2.58D-04 MaxDP=9.10D-03 DE=-1.22D-03 OVMax= 1.09D-02

 Cycle   5  Pass 1  IDiag  1:
 RMSU=  3.52D-05    CP:  6.40D-01  2.45D+00  1.42D+00  1.32D+00
 FoFJK:  IHMeth= 1 ICntrl=     0 DoSepK=T KAlg= 1 I1Cent= 0 FoldK=F
 E= -40.8771536675936     Delta-E=       -0.000115325498 Rises=F Damp=F
 DIIS: error= 4.68D-04 at cycle   5 NSaved=   5.
 NSaved= 5 IEnMin= 5 EnMin= -40.8771536675936     IErMin= 5 ErrMin= 4.68D-04
 ErrMax= 4.68D-04 EMaxC= 1.00D-01 BMatC= 7.04D-06 BMatP= 9.97D-05
 IDIUse=3 WtCom= 9.95D-01 WtEn= 4.68D-03
 Coeff-Com:  0.617D-03 0.842D-02 0.291D-01-0.373D+00 0.133D+01
 Coeff-En:   0.000D+00 0.000D+00 0.000D+00 0.000D+00 0.100D+01
 Coeff:      0.614D-03 0.838D-02 0.289D-01-0.371D+00 0.133D+01
 Gap=     0.468 Goal=   None    Shift=    0.000
 Gap=     0.520 Goal=   None    Shift=    0.000
 RMSDP=3.04D-05 MaxDP=1.15D-03 DE=-1.15D-04 OVMax= 3.47D-03

 Cycle   6  Pass 1  IDiag  1:
 RMSU=  7.55D-06    CP:  6.40D-01  2.45D+00  1.42D+00  1.34D+00  1.59D+00
 FoFJK:  IHMeth= 1 ICntrl=     0 DoSepK=T KAlg= 1 I1Cent= 0 FoldK=F
 E= -40.8771624737682     Delta-E=       -0.000008806175 Rises=F Damp=F
 DIIS: error= 1.37D-04 at cycle   6 NSaved=   6.
 NSaved= 6 IEnMin= 6 EnMin= -40.8771624737682     IErMin= 6 ErrMin= 1.37D-04
 ErrMax= 1.37D-04 EMaxC= 1.00D-01 BMatC= 6.84D-07 BMatP= 7.04D-06
 IDIUse=3 WtCom= 9.99D-01 WtEn= 1.37D-03
 Coeff-Com:  0.361D-03-0.873D-03 0.200D-01-0.786D-01-0.115D+00 0.117D+01
 Coeff-En:   0.000D+00 0.000D+00 0.000D+00 0.000D+00 0.000D+00 0.100D+01
 Coeff:      0.361D-03-0.872D-03 0.199D-01-0.785D-01-0.115D+00 0.117D+01
 Gap=     0.468 Goal=   None    Shift=    0.000
 Gap=     0.520 Goal=   None    Shift=    0.000
 RMSDP=9.64D-06 MaxDP=2.66D-04 DE=-8.81D-06 OVMax= 1.08D-03

 Cycle   7  Pass 1  IDiag  1:
 RMSU=  3.00D-06    CP:  6.40D-01  2.45D+00  1.42D+00  1.34D+00  1.75D+00
                    CP:  1.44D+00
 FoFJK:  IHMeth= 1 ICntrl=     0 DoSepK=T KAlg= 1 I1Cent= 0 FoldK=F
 E= -40.8771632590058     Delta-E=       -0.000000785238 Rises=F Damp=F
 DIIS: error= 4.46D-05 at cycle   7 NSaved=   7.
 NSaved= 7 IEnMin= 7 EnMin= -40.8771632590058     IErMin= 7 ErrMin= 4.46D-05
 ErrMax= 4.46D-05 EMaxC= 1.00D-01 BMatC= 7.52D-08 BMatP= 6.84D-07
 IDIUse=1 WtCom= 1.00D+00 WtEn= 0.00D+00
 Coeff-Com: -0.272D-03-0.541D-03-0.589D-02 0.490D-01-0.902D-01-0.278D+00
 Coeff-Com:  0.133D+01
 Coeff:     -0.272D-03-0.541D-03-0.589D-02 0.490D-01-0.902D-01-0.278D+00
 Coeff:      0.133D+01
 Gap=     0.468 Goal=   None    Shift=    0.000
 Gap=     0.520 Goal=   None    Shift=    0.000
 RMSDP=3.55D-06 MaxDP=6.73D-05 DE=-7.85D-07 OVMax= 3.17D-04

 Cycle   8  Pass 1  IDiag  1:
 RMSU=  7.99D-07    CP:  6.40D-01  2.45D+00  1.42D+00  1.34D+00  1.78D+00
                    CP:  1.64D+00  1.57D+00
 FoFJK:  IHMeth= 1 ICntrl=     0 DoSepK=T KAlg= 1 I1Cent= 0 FoldK=F
 E= -40.8771633350779     Delta-E=       -0.000000076072 Rises=F Damp=F
 DIIS: error= 9.51D-06 at cycle   8 NSaved=   8.
 NSaved= 8 IEnMin= 8 EnMin= -40.8771633350779     IErMin= 8 ErrMin= 9.51D-06
 ErrMax= 9.51D-06 EMaxC= 1.00D-01 BMatC= 6.08D-09 BMatP= 7.52D-08
 IDIUse=1 WtCom= 1.00D+00 WtEn= 0.00D+00
 Coeff-Com:  0.800D-04 0.194D-03 0.110D-02-0.129D-01 0.432D-01 0.321D-01
 Coeff-Com: -0.572D+00 0.151D+01
 Coeff:      0.800D-04 0.194D-03 0.110D-02-0.129D-01 0.432D-01 0.321D-01
 Coeff:     -0.572D+00 0.151D+01
 Gap=     0.468 Goal=   None    Shift=    0.000
 Gap=     0.520 Goal=   None    Shift=    0.000
 RMSDP=1.13D-06 MaxDP=2.82D-05 DE=-7.61D-08 OVMax= 7.17D-05

 Cycle   9  Pass 1  IDiag  1:
 RMSU=  2.40D-07    CP:  6.40D-01  2.45D+00  1.42D+00  1.34D+00  1.78D+00
                    CP:  1.68D+00  1.72D+00  1.74D+00
 FoFJK:  IHMeth= 1 ICntrl=     0 DoSepK=T KAlg= 1 I1Cent= 0 FoldK=F
 E= -40.8771633408604     Delta-E=       -0.000000005783 Rises=F Damp=F
 DIIS: error= 1.74D-06 at cycle   9 NSaved=   9.
 NSaved= 9 IEnMin= 9 EnMin= -40.8771633408604     IErMin= 9 ErrMin= 1.74D-06
 ErrMax= 1.74D-06 EMaxC= 1.00D-01 BMatC= 1.98D-10 BMatP= 6.08D-09
 IDIUse=1 WtCom= 1.00D+00 WtEn= 0.00D+00
 Coeff-Com: -0.115D-04-0.441D-04-0.237D-03 0.263D-02-0.107D-01-0.268D-02
 Coeff-Com:  0.144D+00-0.511D+00 0.138D+01
 Coeff:     -0.115D-04-0.441D-04-0.237D-03 0.263D-02-0.107D-01-0.268D-02
 Coeff:      0.144D+00-0.511D+00 0.138D+01
 Gap=     0.468 Goal=   None    Shift=    0.000
 Gap=     0.520 Goal=   None    Shift=    0.000
 RMSDP=2.70D-07 MaxDP=8.13D-06 DE=-5.78D-09 OVMax= 1.26D-05

 Cycle  10  Pass 1  IDiag  1:
 RMSU=  5.48D-08    CP:  6.40D-01  2.45D+00  1.42D+00  1.34D+00  1.79D+00
                    CP:  1.68D+00  1.71D+00  1.88D+00  1.47D+00
 FoFJK:  IHMeth= 1 ICntrl=     0 DoSepK=T KAlg= 1 I1Cent= 0 FoldK=F
 E= -40.8771633410507     Delta-E=       -0.000000000190 Rises=F Damp=F
 DIIS: error= 3.07D-07 at cycle  10 NSaved=  10.
 NSaved=10 IEnMin=10 EnMin= -40.8771633410507     IErMin=10 ErrMin= 3.07D-07
 ErrMax= 3.07D-07 EMaxC= 1.00D-01 BMatC= 1.23D-11 BMatP= 1.98D-10
 IDIUse=1 WtCom= 1.00D+00 WtEn= 0.00D+00
 Coeff-Com:  0.108D-05 0.758D-05 0.652D-04-0.520D-03 0.225D-02-0.546D-03
 Coeff-Com: -0.265D-01 0.110D+00-0.468D+00 0.138D+01
 Coeff:      0.108D-05 0.758D-05 0.652D-04-0.520D-03 0.225D-02-0.546D-03
 Coeff:     -0.265D-01 0.110D+00-0.468D+00 0.138D+01
 Gap=     0.468 Goal=   None    Shift=    0.000
 Gap=     0.520 Goal=   None    Shift=    0.000
 RMSDP=6.02D-08 MaxDP=1.92D-06 DE=-1.90D-10 OVMax= 2.30D-06

 Cycle  11  Pass 1  IDiag  1:
 RMSU=  1.07D-08    CP:  6.40D-01  2.45D+00  1.42D+00  1.34D+00  1.79D+00
                    CP:  1.68D+00  1.71D+00  1.90D+00  1.54D+00  1.49D+00
 FoFJK:  IHMeth= 1 ICntrl=     0 DoSepK=T KAlg= 1 I1Cent= 0 FoldK=F
 E= -40.8771633410654     Delta-E=       -0.000000000015 Rises=F Damp=F
 DIIS: error= 1.11D-07 at cycle  11 NSaved=  11.
 NSaved=11 IEnMin=11 EnMin= -40.8771633410654     IErMin=11 ErrMin= 1.11D-07
 ErrMax= 1.11D-07 EMaxC= 1.00D-01 BMatC= 1.43D-12 BMatP= 1.23D-11
 IDIUse=1 WtCom= 1.00D+00 WtEn= 0.00D+00
 Coeff-Com: -0.322D-06 0.332D-06-0.142D-04 0.563D-04-0.218D-03 0.612D-03
 Coeff-Com: -0.421D-03-0.380D-02 0.720D-01-0.571D+00 0.150D+01
 Coeff:     -0.322D-06 0.332D-06-0.142D-04 0.563D-04-0.218D-03 0.612D-03
 Coeff:     -0.421D-03-0.380D-02 0.720D-01-0.571D+00 0.150D+01
 Gap=     0.468 Goal=   None    Shift=    0.000
 Gap=     0.520 Goal=   None    Shift=    0.000
 RMSDP=1.65D-08 MaxDP=2.57D-07 DE=-1.46D-11 OVMax= 7.11D-07

 Cycle  12  Pass 1  IDiag  1:
 RMSU=  4.22D-09    CP:  6.40D-01  2.45D+00  1.42D+00  1.34D+00  1.79D+00
                    CP:  1.68D+00  1.71D+00  1.90D+00  1.54D+00  1.63D+00
                    CP:  1.70D+00
 FoFJK:  IHMeth= 1 ICntrl=     0 DoSepK=T KAlg= 1 I1Cent= 0 FoldK=F
 E= -40.8771633410668     Delta-E=       -0.000000000001 Rises=F Damp=F
 DIIS: error= 2.19D-08 at cycle  12 NSaved=  12.
 NSaved=12 IEnMin=12 EnMin= -40.8771633410668     IErMin=12 ErrMin= 2.19D-08
 ErrMax= 2.19D-08 EMaxC= 1.00D-01 BMatC= 7.49D-14 BMatP= 1.43D-12
 IDIUse=1 WtCom= 1.00D+00 WtEn= 0.00D+00
 Coeff-Com:  0.159D-06-0.212D-06 0.908D-06 0.763D-06-0.351D-04-0.110D-03
 Coeff-Com:  0.148D-02-0.565D-02 0.165D-01 0.336D-01-0.401D+00 0.136D+01
 Coeff:      0.159D-06-0.212D-06 0.908D-06 0.763D-06-0.351D-04-0.110D-03
 Coeff:      0.148D-02-0.565D-02 0.165D-01 0.336D-01-0.401D+00 0.136D+01
 Gap=     0.468 Goal=   None    Shift=    0.000
 Gap=     0.520 Goal=   None    Shift=    0.000
 RMSDP=5.26D-09 MaxDP=1.49D-07 DE=-1.41D-12 OVMax= 1.68D-07

 SCF Done:  E(ULC-B+HF-LYP) =  -40.8771633411     A.U. after   12 cycles
             Convg  =    0.5265D-08             -V/T =  2.0044
 <Sx>= 0.0000 <Sy>= 0.0000 <Sz>= 0.5000 <S**2>= 0.7531 S= 0.5015
 <L.S>= 0.000000000000E+00
 KE= 4.069760125733D+01 PE=-1.252090751984D+02 EE= 2.808170339760D+01
 Annihilation of the first spin contaminant:
 S**2 before annihilation     0.7531,   after     0.7500
 Leave Link  502 at Wed Nov  3 01:13:24 2010, MaxMem=  786432000 cpu:     280.4
 (Enter /share/apps/G09A02/g09/l601.exe)
 Copying SCF densities to generalized density rwf, IOpCl= 1 IROHF=0.

 **********************************************************************

            Population analysis using the SCF density.

 **********************************************************************

 Alpha  occ. eigenvalues --  -10.12081  -0.86908  -0.57444  -0.53208  -0.53208
 Alpha  occ. eigenvalues --   -0.40102
 Alpha virt. eigenvalues --    0.06728   0.09339   0.09340   0.10704   0.22241
 Alpha virt. eigenvalues --    0.22241   0.25234   0.28585   0.35429   0.35429
 Alpha virt. eigenvalues --    0.38432   0.41410   0.41410   0.45676   0.63038
 Alpha virt. eigenvalues --    0.63038   0.66388   0.71430   0.71728   0.71728
 Alpha virt. eigenvalues --    0.78792   0.80134   0.80134   0.88980   0.98550
 Alpha virt. eigenvalues --    1.04911   1.04911   1.09993   1.09993   1.10521
 Alpha virt. eigenvalues --    1.26543   1.26543   1.33223   1.40740   1.40740
 Alpha virt. eigenvalues --    1.56408   1.85987   2.06804   2.06804   2.07595
 Alpha virt. eigenvalues --    2.07595   2.15390   2.46097   2.68290   2.78279
 Alpha virt. eigenvalues --    2.78279   2.91619   3.08334   3.10539   3.10539
 Alpha virt. eigenvalues --    3.44043   3.44043   3.48346   3.64890   3.64890
 Alpha virt. eigenvalues --    3.73197   3.86103   3.86103   4.04516   4.20373
 Alpha virt. eigenvalues --    4.29797   4.29797   4.34786   4.34786   4.35325
 Alpha virt. eigenvalues --    4.56292   4.56292   4.59908   5.13746   5.83449
 Alpha virt. eigenvalues --    5.87879   5.87879   7.29634   7.29634   7.89693
 Alpha virt. eigenvalues --    7.89693   7.95331  24.27230
  Beta  occ. eigenvalues --  -10.11791  -0.86081  -0.53207  -0.53017  -0.53017
  Beta virt. eigenvalues --   -0.01058   0.07298   0.09242   0.09243   0.11192
  Beta virt. eigenvalues --    0.22335   0.22335   0.25766   0.29178   0.35590
  Beta virt. eigenvalues --    0.35590   0.39917   0.41369   0.41369   0.50075
  Beta virt. eigenvalues --    0.63695   0.63695   0.68154   0.71559   0.74797
  Beta virt. eigenvalues --    0.74797   0.78797   0.80318   0.80318   0.89348
  Beta virt. eigenvalues --    0.98545   1.05465   1.05465   1.10209   1.10209
  Beta virt. eigenvalues --    1.13693   1.26657   1.26657   1.33528   1.40940
  Beta virt. eigenvalues --    1.40940   1.57171   1.87893   2.07082   2.07082
  Beta virt. eigenvalues --    2.08209   2.08209   2.16796   2.52408   2.74055
  Beta virt. eigenvalues --    2.78560   2.78560   2.97249   3.08455   3.11183
  Beta virt. eigenvalues --    3.11183   3.44385   3.44385   3.48683   3.65088
  Beta virt. eigenvalues --    3.65088   3.75036   4.00298   4.00298   4.05396
  Beta virt. eigenvalues --    4.29263   4.29722   4.29722   4.34839   4.34839
  Beta virt. eigenvalues --    4.38352   4.56371   4.56371   4.59996   5.14082
  Beta virt. eigenvalues --    5.83973   5.88036   5.88036   7.30497   7.30497
  Beta virt. eigenvalues --    7.90211   7.90211   7.96495  24.27623
          Condensed to atoms (all electrons):
              1          2          3          4          5          6
     1  C    5.135179   0.382984   0.403041   0.403041   0.403041  -0.024257
     2  H    0.382984   0.474240  -0.015590  -0.015590  -0.015590  -0.029760
     3  H    0.403041  -0.015590   0.476595  -0.017325  -0.017325   0.000947
     4  H    0.403041  -0.015590  -0.017325   0.476593  -0.017325   0.000947
     5  H    0.403041  -0.015590  -0.017325  -0.017325   0.476593   0.000947
     6  H   -0.024257  -0.029760   0.000947   0.000947   0.000947   1.076427
 Mulliken atomic charges:
              1
     1  C   -0.703030
     2  H    0.219306
     3  H    0.169657
     4  H    0.169659
     5  H    0.169659
     6  H   -0.025251
 Sum of Mulliken atomic charges =   0.00000
 Mulliken charges with hydrogens summed into heavy atoms:
              1
     1  C    0.000000
 Sum of Mulliken charges with hydrogens summed into heavy atoms =   0.00000
          Atomic-Atomic Spin Densities.
              1          2          3          4          5          6
     1  C    0.172411   0.026499  -0.000990  -0.000990  -0.000990  -0.045820
     2  H    0.026499  -0.040259   0.000724   0.000724   0.000724  -0.072685
     3  H   -0.000990   0.000724  -0.003073   0.000189   0.000189   0.001794
     4  H   -0.000990   0.000724   0.000189  -0.003073   0.000189   0.001793
     5  H   -0.000990   0.000724   0.000189   0.000189  -0.003073   0.001793
     6  H   -0.045820  -0.072685   0.001794   0.001793   0.001793   1.050780
 Mulliken atomic spin densities:
              1
     1  C    0.150119
     2  H   -0.084273
     3  H   -0.001167
     4  H   -0.001167
     5  H   -0.001167
     6  H    0.937655
 Sum of Mulliken atomic spin densities =   1.00000
 Electronic spatial extent (au):  <R**2>=             62.3023
 Charge=              0.0000 electrons
 Dipole moment (field-independent basis, Debye):
    X=              0.0000    Y=              0.0000    Z=             -0.3386  Tot=              0.3386
 Quadrupole moment (field-independent basis, Debye-Ang):
   XX=             -9.8317   YY=             -9.8317   ZZ=            -11.0867
   XY=              0.0000   XZ=              0.0000   YZ=              0.0000
 Traceless Quadrupole moment (field-independent basis, Debye-Ang):
   XX=              0.4183   YY=              0.4183   ZZ=             -0.8367
   XY=              0.0000   XZ=              0.0000   YZ=              0.0000
 Octapole moment (field-independent basis, Debye-Ang**2):
  XXX=              0.6912  YYY=              0.0000  ZZZ=            -13.5089  XYY=             -0.6912
  XXY=              0.0000  XXZ=             -4.0941  XZZ=              0.0000  YZZ=              0.0000
  YYZ=             -4.0941  XYZ=              0.0000
 Hexadecapole moment (field-independent basis, Debye-Ang**3):
 XXXX=            -18.2549 YYYY=            -18.2549 ZZZZ=            -83.3268 XXXY=              0.0000
 XXXZ=             -0.4229 YYYX=              0.0000 YYYZ=              0.0000 ZZZX=              0.0000
 ZZZY=              0.0000 XXYY=             -6.0850 XXZZ=            -15.6542 YYZZ=            -15.6542
 XXYZ=              0.0000 YYXZ=              0.4229 ZZXY=              0.0000
 N-N= 1.555260720236D+01 E-N=-1.859617673982D+02  KE= 6.068491035891D+01
                          Isotropic Fermi Contact Couplings
        Atom                 a.u.       MegaHertz       Gauss      10(-4) cm-1
     1  C(13)              0.07606      85.50806      30.51140      28.52242
     2  H(1)              -0.00824     -36.81899     -13.13793     -12.28149
     3  H(1)              -0.00121      -5.42648      -1.93630      -1.81008
     4  H(1)              -0.00121      -5.42647      -1.93630      -1.81008
     5  H(1)              -0.00121      -5.42647      -1.93630      -1.81008
     6  H(1)               0.27885    1246.44529     444.76266     415.76939
 --------------------------------------------------------
       Center         ----  Spin Dipole Couplings  ----
                      3XX-RR        3YY-RR        3ZZ-RR
 --------------------------------------------------------
     1   Atom       -0.104918     -0.104918      0.209837
     2   Atom       -0.067193     -0.067193      0.134385
     3   Atom        0.007313     -0.014439      0.007126
     4   Atom       -0.009001      0.001875      0.007126
     5   Atom       -0.009001      0.001875      0.007126
     6   Atom        0.003763      0.003763     -0.007526
 --------------------------------------------------------
                        XY            XZ            YZ
 --------------------------------------------------------
     1   Atom        0.000000      0.000000      0.000000
     2   Atom        0.000000      0.000000      0.000000
     3   Atom        0.000000     -0.009602      0.000000
     4   Atom        0.009419      0.004801      0.008316
     5   Atom       -0.009419      0.004801     -0.008316
     6   Atom        0.000000      0.000000      0.000000
 --------------------------------------------------------


 ---------------------------------------------------------------------------------
              Anisotropic Spin Dipole Couplings in Principal Axis System
 ---------------------------------------------------------------------------------

       Atom             a.u.   MegaHertz   Gauss  10(-4) cm-1        Axes

              Baa    -0.1049   -14.079    -5.024    -4.696  1.0000  0.0000  0.0000
     1 C(13)  Bbb    -0.1049   -14.079    -5.024    -4.696  0.0000  1.0000  0.0000
              Bcc     0.2098    28.158    10.048     9.393  0.0000  0.0000  1.0000
 
              Baa    -0.0672   -35.851   -12.792   -11.959  1.0000  0.0000  0.0000
     2 H(1)   Bbb    -0.0672   -35.851   -12.792   -11.959  0.0000  1.0000  0.0000
              Bcc     0.1344    71.702    25.585    23.917  0.0000  0.0000  1.0000
 
              Baa    -0.0144    -7.704    -2.749    -2.570  0.0000  1.0000  0.0000
     3 H(1)   Bbb    -0.0024    -1.271    -0.454    -0.424  0.7037  0.0000  0.7105
              Bcc     0.0168     8.975     3.203     2.994  0.7105  0.0000 -0.7037
 
              Baa    -0.0144    -7.704    -2.749    -2.570  0.8660 -0.5000  0.0000
     4 H(1)   Bbb    -0.0024    -1.271    -0.454    -0.424 -0.3518 -0.6094  0.7105
              Bcc     0.0168     8.975     3.203     2.994  0.3553  0.6153  0.7037
 
              Baa    -0.0144    -7.704    -2.749    -2.570  0.8660  0.5000  0.0000
     5 H(1)   Bbb    -0.0024    -1.271    -0.454    -0.424 -0.3518  0.6094  0.7105
              Bcc     0.0168     8.975     3.203     2.994  0.3553 -0.6153  0.7037
 
              Baa    -0.0075    -4.016    -1.433    -1.340  0.0000  0.0000  1.0000
     6 H(1)   Bbb     0.0038     2.008     0.716     0.670  1.0000  0.0000  0.0000
              Bcc     0.0038     2.008     0.716     0.670  0.0000  1.0000  0.0000
 

 ---------------------------------------------------------------------------------

 No NMR shielding tensors so no spin-rotation constants.
 Leave Link  601 at Wed Nov  3 01:13:25 2010, MaxMem=  786432000 cpu:       3.9
 (Enter /share/apps/G09A02/g09/l9999.exe)
 1\1\GINC-COMPUTE-0-7\SP\ULC-BLYP\6-311+G(3df,2p)\C1H5(2)\WENXINZY\03-N
 ov-2010\0\\#p lc-blyp/6-311+g(3df,2p) nosymm scf=tight\\10 H_CH4\\0,2\
 C\H,1,1.1106673\H,1,1.0893972,2,108.8910578\H,1,1.0893972,2,108.891057
 8,3,120.,0\H,1,1.0893972,2,108.8910578,3,-120.,0\H,2,1.3894343,1,180.,
 3,0.,0\\Version=EM64L-G09RevA.02\HF=-40.8771633\S2=0.753091\S2-1=0.\S2
 A=0.750001\RMSD=5.265e-09\Dipole=0.000001,0.,-0.1332289\Quadrupole=0.3
 110213,0.3110234,-0.6220447,0.,0.0000007,0.\PG=C03V [C3(H1H1C1),3SGV(H
 1)]\\@


      LET US REMEMBER, PLEASE, THAT THE SEARCH FOR THE CONSTITUTION
      OF THE WORLD IS ONE OF THE GREATEST AND NOBLEST PROBLEMS PRESENTED 
      BY NATURE.

                                                  -- GALILEO
 Job cpu time:  0 days  0 hours  4 minutes 54.1 seconds.
 File lengths (MBytes):  RWF=      9 Int=      0 D2E=      0 Chk=      1 Scr=      1
 Normal termination of Gaussian 09 at Wed Nov  3 01:13:25 2010.
