 Entering Gaussian System, Link 0=/share/apps/G09A02/g09/g09
 Input=./.script12553/Job_H_CH4_36.com
 Output=./.script12553/Job_H_CH4_36.log
 Initial command:
 /share/apps/G09A02/g09/l1.exe /state/partition1/wenxinzy/scratch/Gau-16235.inp -scrdir=/state/partition1/wenxinzy/scratch/
 Default is to use a total of   8 processors:
                                8 via shared-memory
                                1 via Linda
 Entering Link 1 = /share/apps/G09A02/g09/l1.exe PID=     16236.
  
 Copyright (c) 1988,1990,1992,1993,1995,1998,2003,2009, Gaussian, Inc.
                  All Rights Reserved.
  
 This is part of the Gaussian(R) 09 program.  It is based on
 the Gaussian(R) 03 system (copyright 2003, Gaussian, Inc.),
 the Gaussian(R) 98 system (copyright 1998, Gaussian, Inc.),
 the Gaussian(R) 94 system (copyright 1995, Gaussian, Inc.),
 the Gaussian 92(TM) system (copyright 1992, Gaussian, Inc.),
 the Gaussian 90(TM) system (copyright 1990, Gaussian, Inc.),
 the Gaussian 88(TM) system (copyright 1988, Gaussian, Inc.),
 the Gaussian 86(TM) system (copyright 1986, Carnegie Mellon
 University), and the Gaussian 82(TM) system (copyright 1983,
 Carnegie Mellon University). Gaussian is a federally registered
 trademark of Gaussian, Inc.
  
 This software contains proprietary and confidential information,
 including trade secrets, belonging to Gaussian, Inc.
  
 This software is provided under written license and may be
 used, copied, transmitted, or stored only in accord with that
 written license.
  
 The following legend is applicable only to US Government
 contracts under FAR:
  
                    RESTRICTED RIGHTS LEGEND
  
 Use, reproduction and disclosure by the US Government is
 subject to restrictions as set forth in subparagraphs (a)
 and (c) of the Commercial Computer Software - Restricted
 Rights clause in FAR 52.227-19.
  
 Gaussian, Inc.
 340 Quinnipiac St., Bldg. 40, Wallingford CT 06492
  
  
 ---------------------------------------------------------------
 Warning -- This program may not be used in any manner that
 competes with the business of Gaussian, Inc. or will provide
 assistance to any competitor of Gaussian, Inc.  The licensee
 of this program is prohibited from giving any competitor of
 Gaussian, Inc. access to this program.  By using this program,
 the user acknowledges that Gaussian, Inc. is engaged in the
 business of creating and licensing software in the field of
 computational chemistry and represents and warrants to the
 licensee that it is not a competitor of Gaussian, Inc. and that
 it will not use this program in any manner prohibited above.
 ---------------------------------------------------------------
  

 Cite this work as:
 Gaussian 09, Revision A.02,
 M. J. Frisch, G. W. Trucks, H. B. Schlegel, G. E. Scuseria, 
 M. A. Robb, J. R. Cheeseman, G. Scalmani, V. Barone, B. Mennucci, 
 G. A. Petersson, H. Nakatsuji, M. Caricato, X. Li, H. P. Hratchian, 
 A. F. Izmaylov, J. Bloino, G. Zheng, J. L. Sonnenberg, M. Hada, 
 M. Ehara, K. Toyota, R. Fukuda, J. Hasegawa, M. Ishida, T. Nakajima, 
 Y. Honda, O. Kitao, H. Nakai, T. Vreven, J. A. Montgomery, Jr., 
 J. E. Peralta, F. Ogliaro, M. Bearpark, J. J. Heyd, E. Brothers, 
 K. N. Kudin, V. N. Staroverov, R. Kobayashi, J. Normand, 
 K. Raghavachari, A. Rendell, J. C. Burant, S. S. Iyengar, J. Tomasi, 
 M. Cossi, N. Rega, J. M. Millam, M. Klene, J. E. Knox, J. B. Cross, 
 V. Bakken, C. Adamo, J. Jaramillo, R. Gomperts, R. E. Stratmann, 
 O. Yazyev, A. J. Austin, R. Cammi, C. Pomelli, J. W. Ochterski, 
 R. L. Martin, K. Morokuma, V. G. Zakrzewski, G. A. Voth, 
 P. Salvador, J. J. Dannenberg, S. Dapprich, A. D. Daniels, 
 O. Farkas, J. B. Foresman, J. V. Ortiz, J. Cioslowski, 
 and D. J. Fox, Gaussian, Inc., Wallingford CT, 2009.
 
 ******************************************
 Gaussian 09:  EM64L-G09RevA.02 11-Jun-2009
                 3-Nov-2010 
 ******************************************
 %chk=/state/partition1/wenxinzy/scratch/H_CH4_36.chk
 %nproc=8
 Will use up to    8 processors via shared memory.
 %mem=6000mb
 -------------------------------------------
 #p lc-blyp/6-311+g(3df,2p) nosymm scf=tight
 -------------------------------------------
 1/38=1/1;
 2/12=2,15=1,17=6,18=5,40=1/2;
 3/5=4,6=6,7=216,11=2,16=1,25=1,30=1,74=1000402/1,2,3;
 4//1;
 5/5=2,32=2,38=5/2;
 6/7=2,8=2,9=2,10=2,28=1/1;
 99/5=1,9=1/99;
 Leave Link    1 at Wed Nov  3 01:28:03 2010, MaxMem=  786432000 cpu:       0.4
 (Enter /share/apps/G09A02/g09/l101.exe)
 --------
 37 H_CH4
 --------
 Symbolic Z-matrix:
 Charge =  0 Multiplicity = 2
 C
 H1                   C    R1
 H2                   C    R2       H1   A1
 H3                   C    R2       H1   A1       H2    120.     0
 H4                   C    R2       H1   A1       H2   -120.     0
 H5                   H1   R3       C     180.     H2    0.       0
       Variables:
  R1                    1.08928                  
  R2                    1.08931                  
  A1                  109.46918                  
  R3                    2.75481                  
 
 NAtoms=      6 NQM=      6 NQMF=      0 NMic=      0 NMicF=      0 NTot=      6.
                    Isotopes and Nuclear Properties:
 (Nuclear quadrupole moments (NQMom) in fm**2, nuclear magnetic moments (NMagM)
  in nuclear magnetons)

  Atom         1           2           3           4           5           6
 IAtWgt=          12           1           1           1           1           1
 AtmWgt=  12.0000000   1.0078250   1.0078250   1.0078250   1.0078250   1.0078250
 NucSpn=           0           1           1           1           1           1
 AtZEff=   0.0000000   0.0000000   0.0000000   0.0000000   0.0000000   0.0000000
 NQMom=    0.0000000   0.0000000   0.0000000   0.0000000   0.0000000   0.0000000
 NMagM=    0.0000000   2.7928460   2.7928460   2.7928460   2.7928460   2.7928460
 Leave Link  101 at Wed Nov  3 01:28:04 2010, MaxMem=  786432000 cpu:       1.2
 (Enter /share/apps/G09A02/g09/l202.exe)
                          Input orientation:                          
 ---------------------------------------------------------------------
 Center     Atomic      Atomic             Coordinates (Angstroms)
 Number     Number       Type             X           Y           Z
 ---------------------------------------------------------------------
      1          6           0        0.000000    0.000000    0.000000
      2          1           0        0.000000    0.000000    1.089277
      3          1           0        1.027020    0.000000   -0.363065
      4          1           0       -0.513510   -0.889426   -0.363065
      5          1           0       -0.513510    0.889426   -0.363065
      6          1           0        0.000000    0.000000    3.844085
 ---------------------------------------------------------------------
                    Distance matrix (angstroms):
                    1          2          3          4          5
     1  C    0.000000
     2  H    1.089277   0.000000
     3  H    1.089306   1.778783   0.000000
     4  H    1.089306   1.778783   1.778851   0.000000
     5  H    1.089306   1.778783   1.778851   1.778851   0.000000
     6  H    3.844085   2.754808   4.330691   4.330691   4.330691
                    6
     6  H    0.000000
 Symmetry turned off by external request.
 Stoichiometry    CH5(2)
 Framework group  C3V[C3(HHC),3SGV(H)]
 Deg. of freedom     4
 Full point group                 C3V     NOp   6
 Rotational constants (GHZ):    158.4720724     29.3814646     29.3814646
 Leave Link  202 at Wed Nov  3 01:28:04 2010, MaxMem=  786432000 cpu:       0.0
 (Enter /share/apps/G09A02/g09/l301.exe)
 Standard basis: 6-311+G(3df,2p) (5D, 7F)
 Ernie: Thresh=  0.10000D-02 Tol=  0.10000D-05 Strict=F.
 Integral buffers will be    131072 words long.
 Raffenetti 2 integral format.
 Two-electron integral symmetry is turned off.
    84 basis functions,   113 primitive gaussians,    90 cartesian basis functions
     6 alpha electrons        5 beta electrons
       nuclear repulsion energy        14.8286702655 Hartrees.
 IExCor=10402 DFT=T Ex=LC-B+HF Corr=LYP ExCW=0 ScaHFX=  1.000000
 ScaDFX=  1.000000  1.000000  1.000000  1.000000 ScalE2=  1.000000  1.000000
 IRadAn=      0 IRanWt=     -1 IRanGd=            0 ICorTp=0
  HFx wShort=  0.000000 wLong=  0.470000 cFull=  0.000000 cShort=  0.000000 cLong=  1.000000
  DFx wShort=  0.000000 wLong=  0.470000 cFull=  0.000000 cShort=  0.000000 cLong=  1.000000
 NAtoms=    6 NActive=    6 NUniq=    6 SFac= 7.50D-01 NAtFMM=   80 NAOKFM=F Big=F
 Leave Link  301 at Wed Nov  3 01:28:04 2010, MaxMem=  786432000 cpu:       0.7
 (Enter /share/apps/G09A02/g09/l302.exe)
 NPDir=0 NMtPBC=     1 NCelOv=     1 NCel=       1 NClECP=     1 NCelD=      1
         NCelK=      1 NCelE2=     1 NClLst=     1 CellRange=     0.0.
 One-electron integrals computed using PRISM.
 NBasis=    84 RedAO= T  NBF=    84
 NBsUse=    84 1.00D-06 NBFU=    84
 Precomputing XC quadrature grid using
 IXCGrd= 2 IRadAn=           0 IRanWt=          -1 IRanGd=           0 AccXCQ= 1.00D-10.
 NRdTot=     384 NPtTot=       48740 NUsed=       51519 NTot=       51551
 NSgBfM=    90    90    90    90    90 NAtAll=     6     6.
 Leave Link  302 at Wed Nov  3 01:28:04 2010, MaxMem=  786432000 cpu:       2.5
 (Enter /share/apps/G09A02/g09/l303.exe)
 DipDrv:  MaxL=1.
 Leave Link  303 at Wed Nov  3 01:28:04 2010, MaxMem=  786432000 cpu:       0.9
 (Enter /share/apps/G09A02/g09/l401.exe)
 Harris functional with IExCor=10402 diagonalized for initial guess.
 ExpMin= 4.38D-02 ExpMax= 4.56D+03 ExpMxC= 6.82D+02 IAcc=2 IRadAn=         0 AccDes= 0.00D+00
 HarFok:  IExCor=10402 AccDes= 0.00D+00 IRadAn=         0 IDoV= 1
 ScaDFX=  1.000000  1.000000  1.000000  1.000000
 FoFCou: FMM=F IPFlag=           0 FMFlag=      100000 FMFlg1=           0
         NFxFlg=           0 DoJE=T BraDBF=F KetDBF=T FulRan=T
         Omega=  0.000000  0.000000  1.000000  0.000000  0.000000 ICntrl=     500 IOpCl=  0
         NMat0=    1 NMatS0=    1 NMatT0=    0 NMatD0=    1 NMtDS0=    0 NMtDT0=    0
         I1Cent=           4 NGrid=           0.
 Symmetry not used in FoFCou.
 Harris En= -38.5633243706430    
 Initial guess <Sx>= 0.0000 <Sy>= 0.0000 <Sz>= 0.5000 <S**2>= 0.7500 S= 0.5000
 Leave Link  401 at Wed Nov  3 01:28:05 2010, MaxMem=  786432000 cpu:       3.6
 (Enter /share/apps/G09A02/g09/l502.exe)
 UHF open shell SCF:
 Requested convergence on RMS density matrix=1.00D-08 within 128 cycles.
 Requested convergence on MAX density matrix=1.00D-06.
 Requested convergence on             energy=1.00D-06.
 No special actions if energy rises.
 Using DIIS extrapolation, IDIIS=  1040.
 Two-electron integral symmetry not used.
        51452 words used for storage of precomputed grid.
 IEnd=       95170 IEndB=       95170 NGot=   786432000 MDV=   786361661
 LenX=   786361661 LenY=   786353120
 Fock matrices will be formed incrementally for  20 cycles.

 Cycle   1  Pass 1  IDiag  1:
 FoFJK:  IHMeth= 1 ICntrl=     0 DoSepK=T KAlg= 1 I1Cent= 0 FoldK=F
 FoFCou: FMM=F IPFlag=           0 FMFlag=      100000 FMFlg1=           0
         NFxFlg=           0 DoJE=T BraDBF=F KetDBF=F FulRan=T
         Omega=  0.000000  0.000000  1.000000  0.000000  0.000000 ICntrl=     500 IOpCl=  0
         NMat0=    1 NMatS0=    1 NMatT0=    0 NMatD0=    1 NMtDS0=    0 NMtDT0=    0
         I1Cent=           0 NGrid=           0.
 Symmetry not used in FoFCou.
 E= -40.7995445688038    
 DIIS: error= 3.41D-02 at cycle   1 NSaved=   1.
 NSaved= 1 IEnMin= 1 EnMin= -40.7995445688038     IErMin= 1 ErrMin= 3.41D-02
 ErrMax= 3.41D-02 EMaxC= 1.00D-01 BMatC= 2.55D-01 BMatP= 2.55D-01
 IDIUse=3 WtCom= 6.59D-01 WtEn= 3.41D-01
 Coeff-Com:  0.100D+01
 Coeff-En:   0.100D+01
 Coeff:      0.100D+01
 Gap=     0.514 Goal=   None    Shift=    0.000
 Gap=     0.350 Goal=   None    Shift=    0.000
 GapD=    0.350 DampG=1.000 DampE=0.500 DampFc=0.5000 IDamp=-1.
 Damping current iteration by 5.00D-01
 RMSDP=4.52D-03 MaxDP=1.73D-01              OVMax= 1.61D-01

 Cycle   2  Pass 1  IDiag  1:
 RMSU=  1.76D-03    CP:  9.08D-01
 FoFJK:  IHMeth= 1 ICntrl=     0 DoSepK=T KAlg= 1 I1Cent= 0 FoldK=F
 E= -40.8412984600600     Delta-E=       -0.041753891256 Rises=F Damp=T
 DIIS: error= 1.22D-02 at cycle   2 NSaved=   2.
 NSaved= 2 IEnMin= 2 EnMin= -40.8412984600600     IErMin= 2 ErrMin= 1.22D-02
 ErrMax= 1.22D-02 EMaxC= 1.00D-01 BMatC= 2.18D-02 BMatP= 2.55D-01
 IDIUse=3 WtCom= 8.78D-01 WtEn= 1.22D-01
 Coeff-Com: -0.223D+00 0.122D+01
 Coeff-En:   0.000D+00 0.100D+01
 Coeff:     -0.195D+00 0.120D+01
 Gap=     0.567 Goal=   None    Shift=    0.000
 Gap=     0.470 Goal=   None    Shift=    0.000
 RMSDP=2.41D-03 MaxDP=1.14D-01 DE=-4.18D-02 OVMax= 4.50D-02

 Cycle   3  Pass 1  IDiag  1:
 RMSU=  8.83D-04    CP:  8.30D-01  1.98D+00
 FoFJK:  IHMeth= 1 ICntrl=     0 DoSepK=T KAlg= 1 I1Cent= 0 FoldK=F
 E= -40.8826531959145     Delta-E=       -0.041354735854 Rises=F Damp=F
 DIIS: error= 3.44D-03 at cycle   3 NSaved=   3.
 NSaved= 3 IEnMin= 3 EnMin= -40.8826531959145     IErMin= 3 ErrMin= 3.44D-03
 ErrMax= 3.44D-03 EMaxC= 1.00D-01 BMatC= 9.47D-04 BMatP= 2.18D-02
 IDIUse=3 WtCom= 9.66D-01 WtEn= 3.44D-02
 Coeff-Com:  0.427D-01-0.290D+00 0.125D+01
 Coeff-En:   0.000D+00 0.000D+00 0.100D+01
 Coeff:      0.412D-01-0.280D+00 0.124D+01
 Gap=     0.515 Goal=   None    Shift=    0.000
 Gap=     0.502 Goal=   None    Shift=    0.000
 RMSDP=5.95D-04 MaxDP=3.02D-02 DE=-4.14D-02 OVMax= 3.67D-02

 Cycle   4  Pass 1  IDiag  1:
 RMSU=  2.76D-04    CP:  8.14D-01  2.16D+00  1.30D+00
 FoFJK:  IHMeth= 1 ICntrl=     0 DoSepK=T KAlg= 1 I1Cent= 0 FoldK=F
 E= -40.8835780990631     Delta-E=       -0.000924903149 Rises=F Damp=F
 DIIS: error= 4.63D-04 at cycle   4 NSaved=   4.
 NSaved= 4 IEnMin= 4 EnMin= -40.8835780990631     IErMin= 4 ErrMin= 4.63D-04
 ErrMax= 4.63D-04 EMaxC= 1.00D-01 BMatC= 2.27D-05 BMatP= 9.47D-04
 IDIUse=3 WtCom= 9.95D-01 WtEn= 4.63D-03
 Coeff-Com: -0.410D-02-0.295D-02-0.107D+00 0.111D+01
 Coeff-En:   0.000D+00 0.000D+00 0.000D+00 0.100D+01
 Coeff:     -0.408D-02-0.293D-02-0.106D+00 0.111D+01
 Gap=     0.513 Goal=   None    Shift=    0.000
 Gap=     0.502 Goal=   None    Shift=    0.000
 RMSDP=9.02D-05 MaxDP=4.92D-03 DE=-9.25D-04 OVMax= 5.85D-03

 Cycle   5  Pass 1  IDiag  1:
 RMSU=  3.76D-05    CP:  8.12D-01  2.19D+00  1.33D+00  1.21D+00
 FoFJK:  IHMeth= 1 ICntrl=     0 DoSepK=T KAlg= 1 I1Cent= 0 FoldK=F
 E= -40.8835982923052     Delta-E=       -0.000020193242 Rises=F Damp=F
 DIIS: error= 6.19D-05 at cycle   5 NSaved=   5.
 NSaved= 5 IEnMin= 5 EnMin= -40.8835982923052     IErMin= 5 ErrMin= 6.19D-05
 ErrMax= 6.19D-05 EMaxC= 1.00D-01 BMatC= 2.54D-07 BMatP= 2.27D-05
 IDIUse=1 WtCom= 1.00D+00 WtEn= 0.00D+00
 Coeff-Com:  0.626D-03 0.304D-02 0.126D-01-0.248D+00 0.123D+01
 Coeff:      0.626D-03 0.304D-02 0.126D-01-0.248D+00 0.123D+01
 Gap=     0.513 Goal=   None    Shift=    0.000
 Gap=     0.502 Goal=   None    Shift=    0.000
 RMSDP=1.82D-05 MaxDP=7.47D-04 DE=-2.02D-05 OVMax= 4.89D-04

 Cycle   6  Pass 1  IDiag  1:
 RMSU=  2.02D-06    CP:  8.12D-01  2.18D+00  1.33D+00  1.23D+00  1.43D+00
 FoFJK:  IHMeth= 1 ICntrl=     0 DoSepK=T KAlg= 1 I1Cent= 0 FoldK=F
 E= -40.8835985225822     Delta-E=       -0.000000230277 Rises=F Damp=F
 DIIS: error= 1.00D-05 at cycle   6 NSaved=   6.
 NSaved= 6 IEnMin= 6 EnMin= -40.8835985225822     IErMin= 6 ErrMin= 1.00D-05
 ErrMax= 1.00D-05 EMaxC= 1.00D-01 BMatC= 1.16D-08 BMatP= 2.54D-07
 IDIUse=1 WtCom= 1.00D+00 WtEn= 0.00D+00
 Coeff-Com: -0.206D-04-0.700D-03-0.115D-02 0.403D-01-0.308D+00 0.127D+01
 Coeff:     -0.206D-04-0.700D-03-0.115D-02 0.403D-01-0.308D+00 0.127D+01
 Gap=     0.513 Goal=   None    Shift=    0.000
 Gap=     0.502 Goal=   None    Shift=    0.000
 RMSDP=3.30D-06 MaxDP=1.30D-04 DE=-2.30D-07 OVMax= 8.74D-05

 Cycle   7  Pass 1  IDiag  1:
 RMSU=  4.48D-07    CP:  8.12D-01  2.18D+00  1.33D+00  1.23D+00  1.50D+00
                    CP:  1.44D+00
 FoFJK:  IHMeth= 1 ICntrl=     0 DoSepK=T KAlg= 1 I1Cent= 0 FoldK=F
 E= -40.8835985335364     Delta-E=       -0.000000010954 Rises=F Damp=F
 DIIS: error= 3.97D-06 at cycle   7 NSaved=   7.
 NSaved= 7 IEnMin= 7 EnMin= -40.8835985335364     IErMin= 7 ErrMin= 3.97D-06
 ErrMax= 3.97D-06 EMaxC= 1.00D-01 BMatC= 1.00D-09 BMatP= 1.16D-08
 IDIUse=1 WtCom= 1.00D+00 WtEn= 0.00D+00
 Coeff-Com: -0.436D-04-0.121D-03-0.692D-03 0.117D-01-0.482D-01-0.113D+00
 Coeff-Com:  0.115D+01
 Coeff:     -0.436D-04-0.121D-03-0.692D-03 0.117D-01-0.482D-01-0.113D+00
 Coeff:      0.115D+01
 Gap=     0.513 Goal=   None    Shift=    0.000
 Gap=     0.502 Goal=   None    Shift=    0.000
 RMSDP=4.79D-07 MaxDP=1.39D-05 DE=-1.10D-08 OVMax= 2.09D-05

 Cycle   8  Pass 1  IDiag  1:
 RMSU=  1.01D-07    CP:  8.12D-01  2.18D+00  1.33D+00  1.23D+00  1.51D+00
                    CP:  1.56D+00  1.37D+00
 FoFJK:  IHMeth= 1 ICntrl=     0 DoSepK=T KAlg= 1 I1Cent= 0 FoldK=F
 E= -40.8835985343765     Delta-E=       -0.000000000840 Rises=F Damp=F
 DIIS: error= 1.54D-06 at cycle   8 NSaved=   8.
 NSaved= 8 IEnMin= 8 EnMin= -40.8835985343765     IErMin= 8 ErrMin= 1.54D-06
 ErrMax= 1.54D-06 EMaxC= 1.00D-01 BMatC= 1.41D-10 BMatP= 1.00D-09
 IDIUse=1 WtCom= 1.00D+00 WtEn= 0.00D+00
 Coeff-Com:  0.177D-04 0.127D-03 0.456D-03-0.959D-02 0.543D-01-0.902D-01
 Coeff-Com: -0.444D+00 0.149D+01
 Coeff:      0.177D-04 0.127D-03 0.456D-03-0.959D-02 0.543D-01-0.902D-01
 Coeff:     -0.444D+00 0.149D+01
 Gap=     0.513 Goal=   None    Shift=    0.000
 Gap=     0.502 Goal=   None    Shift=    0.000
 RMSDP=1.60D-07 MaxDP=3.12D-06 DE=-8.40D-10 OVMax= 1.00D-05

 Cycle   9  Pass 1  IDiag  1:
 RMSU=  2.98D-08    CP:  8.12D-01  2.18D+00  1.33D+00  1.23D+00  1.51D+00
                    CP:  1.58D+00  1.53D+00  1.83D+00
 FoFJK:  IHMeth= 1 ICntrl=     0 DoSepK=T KAlg= 1 I1Cent= 0 FoldK=F
 E= -40.8835985345024     Delta-E=       -0.000000000126 Rises=F Damp=F
 DIIS: error= 3.58D-07 at cycle   9 NSaved=   9.
 NSaved= 9 IEnMin= 9 EnMin= -40.8835985345024     IErMin= 9 ErrMin= 3.58D-07
 ErrMax= 3.58D-07 EMaxC= 1.00D-01 BMatC= 6.91D-12 BMatP= 1.41D-10
 IDIUse=1 WtCom= 1.00D+00 WtEn= 0.00D+00
 Coeff-Com: -0.200D-07-0.254D-04-0.744D-04 0.174D-02-0.109D-01 0.346D-01
 Coeff-Com:  0.280D-01-0.396D+00 0.134D+01
 Coeff:     -0.200D-07-0.254D-04-0.744D-04 0.174D-02-0.109D-01 0.346D-01
 Coeff:      0.280D-01-0.396D+00 0.134D+01
 Gap=     0.513 Goal=   None    Shift=    0.000
 Gap=     0.502 Goal=   None    Shift=    0.000
 RMSDP=4.26D-08 MaxDP=1.07D-06 DE=-1.26D-10 OVMax= 2.07D-06

 Cycle  10  Pass 1  IDiag  1:
 RMSU=  9.88D-09    CP:  8.12D-01  2.18D+00  1.33D+00  1.23D+00  1.51D+00
                    CP:  1.58D+00  1.54D+00  2.05D+00  1.43D+00
 FoFJK:  IHMeth= 1 ICntrl=     0 DoSepK=T KAlg= 1 I1Cent= 0 FoldK=F
 E= -40.8835985345095     Delta-E=       -0.000000000007 Rises=F Damp=F
 DIIS: error= 6.39D-08 at cycle  10 NSaved=  10.
 NSaved=10 IEnMin=10 EnMin= -40.8835985345095     IErMin=10 ErrMin= 6.39D-08
 ErrMax= 6.39D-08 EMaxC= 1.00D-01 BMatC= 3.07D-13 BMatP= 6.91D-12
 IDIUse=1 WtCom= 1.00D+00 WtEn= 0.00D+00
 Coeff-Com: -0.671D-06 0.972D-05 0.203D-04-0.595D-03 0.393D-02-0.155D-01
 Coeff-Com:  0.253D-02 0.153D+00-0.691D+00 0.155D+01
 Coeff:     -0.671D-06 0.972D-05 0.203D-04-0.595D-03 0.393D-02-0.155D-01
 Coeff:      0.253D-02 0.153D+00-0.691D+00 0.155D+01
 Gap=     0.513 Goal=   None    Shift=    0.000
 Gap=     0.502 Goal=   None    Shift=    0.000
 RMSDP=7.56D-09 MaxDP=1.34D-07 DE=-7.17D-12 OVMax= 3.67D-07

 SCF Done:  E(ULC-B+HF-LYP) =  -40.8835985345     A.U. after   10 cycles
             Convg  =    0.7558D-08             -V/T =  2.0051
 <Sx>= 0.0000 <Sy>= 0.0000 <Sz>= 0.5000 <S**2>= 0.7500 S= 0.5000
 <L.S>= 0.000000000000E+00
 KE= 4.067596053630D+01 PE=-1.238099876487D+02 EE= 2.742175831244D+01
 Annihilation of the first spin contaminant:
 S**2 before annihilation     0.7500,   after     0.7500
 Leave Link  502 at Wed Nov  3 01:28:34 2010, MaxMem=  786432000 cpu:     231.5
 (Enter /share/apps/G09A02/g09/l601.exe)
 Copying SCF densities to generalized density rwf, IOpCl= 1 IROHF=0.

 **********************************************************************

            Population analysis using the SCF density.

 **********************************************************************

 Alpha  occ. eigenvalues --  -10.11331  -0.85952  -0.52693  -0.52525  -0.52525
 Alpha  occ. eigenvalues --   -0.44981
 Alpha virt. eigenvalues --    0.06320   0.09643   0.09643   0.10765   0.22670
 Alpha virt. eigenvalues --    0.22670   0.23150   0.27244   0.36280   0.36822
 Alpha virt. eigenvalues --    0.36822   0.41859   0.41859   0.43172   0.63349
 Alpha virt. eigenvalues --    0.64694   0.64694   0.69032   0.69032   0.72051
 Alpha virt. eigenvalues --    0.74234   0.80043   0.80281   0.80281   0.95478
 Alpha virt. eigenvalues --    0.99181   0.99202   0.99202   1.10252   1.10253
 Alpha virt. eigenvalues --    1.25217   1.25217   1.27087   1.40977   1.40977
 Alpha virt. eigenvalues --    1.43483   1.69064   2.06617   2.06617   2.07840
 Alpha virt. eigenvalues --    2.07840   2.08285   2.34268   2.51711   2.78774
 Alpha virt. eigenvalues --    2.78774   2.80419   3.08998   3.08998   3.09014
 Alpha virt. eigenvalues --    3.43925   3.43925   3.45101   3.65127   3.65189
 Alpha virt. eigenvalues --    3.65189   3.80273   3.80273   3.89995   4.07925
 Alpha virt. eigenvalues --    4.31082   4.31082   4.32476   4.35659   4.35659
 Alpha virt. eigenvalues --    4.58743   4.58743   4.58746   5.01189   5.89377
 Alpha virt. eigenvalues --    5.89377   5.89394   7.30306   7.30306   7.91477
 Alpha virt. eigenvalues --    7.91478   7.92214  24.29280
  Beta  occ. eigenvalues --  -10.11321  -0.85922  -0.52519  -0.52519  -0.52518
  Beta virt. eigenvalues --   -0.02333   0.06610   0.09549   0.09549   0.11187
  Beta virt. eigenvalues --    0.22658   0.22658   0.23494   0.27236   0.36810
  Beta virt. eigenvalues --    0.36810   0.39589   0.41841   0.41841   0.46379
  Beta virt. eigenvalues --    0.64387   0.64730   0.64730   0.72077   0.73211
  Beta virt. eigenvalues --    0.73211   0.74994   0.80083   0.80281   0.80281
  Beta virt. eigenvalues --    0.97175   0.99181   0.99195   0.99195   1.10249
  Beta virt. eigenvalues --    1.10249   1.25213   1.25213   1.27158   1.40979
  Beta virt. eigenvalues --    1.40979   1.43392   1.69054   2.06627   2.06627
  Beta virt. eigenvalues --    2.07854   2.07854   2.08289   2.51657   2.55299
  Beta virt. eigenvalues --    2.78783   2.78783   2.80451   3.09018   3.09019
  Beta virt. eigenvalues --    3.09020   3.43935   3.43935   3.45088   3.65233
  Beta virt. eigenvalues --    3.65233   3.65237   3.95808   3.95808   4.04933
  Beta virt. eigenvalues --    4.07988   4.31084   4.31084   4.32735   4.35659
  Beta virt. eigenvalues --    4.35659   4.58748   4.58748   4.58750   5.01198
  Beta virt. eigenvalues --    5.89383   5.89383   5.89410   7.30335   7.30335
  Beta virt. eigenvalues --    7.91495   7.91495   7.92252  24.29293
          Condensed to atoms (all electrons):
              1          2          3          4          5          6
     1  C    5.064124   0.396466   0.401529   0.401529   0.401529   0.002684
     2  H    0.396466   0.490820  -0.017468  -0.017468  -0.017468  -0.001058
     3  H    0.401529  -0.017468   0.483900  -0.017141  -0.017141  -0.000061
     4  H    0.401529  -0.017468  -0.017141   0.483899  -0.017141  -0.000061
     5  H    0.401529  -0.017468  -0.017141  -0.017141   0.483899  -0.000061
     6  H    0.002684  -0.001058  -0.000061  -0.000061  -0.000061   0.996017
 Mulliken atomic charges:
              1
     1  C   -0.667862
     2  H    0.166175
     3  H    0.166382
     4  H    0.166383
     5  H    0.166383
     6  H    0.002540
 Sum of Mulliken atomic charges =   0.00000
 Mulliken charges with hydrogens summed into heavy atoms:
              1
     1  C    0.000000
 Sum of Mulliken charges with hydrogens summed into heavy atoms =   0.00000
          Atomic-Atomic Spin Densities.
              1          2          3          4          5          6
     1  C    0.013453   0.000605  -0.000323  -0.000323  -0.000323   0.002173
     2  H    0.000605  -0.011925   0.000782   0.000782   0.000782  -0.001950
     3  H   -0.000323   0.000782  -0.000157  -0.000169  -0.000169  -0.000045
     4  H   -0.000323   0.000782  -0.000169  -0.000157  -0.000169  -0.000045
     5  H   -0.000323   0.000782  -0.000169  -0.000169  -0.000157  -0.000045
     6  H    0.002173  -0.001950  -0.000045  -0.000045  -0.000045   0.995816
 Mulliken atomic spin densities:
              1
     1  C    0.015261
     2  H   -0.010923
     3  H   -0.000081
     4  H   -0.000081
     5  H   -0.000081
     6  H    0.995905
 Sum of Mulliken atomic spin densities =   1.00000
 Electronic spatial extent (au):  <R**2>=             91.8427
 Charge=              0.0000 electrons
 Dipole moment (field-independent basis, Debye):
    X=              0.0000    Y=              0.0000    Z=              0.0099  Tot=              0.0099
 Quadrupole moment (field-independent basis, Debye-Ang):
   XX=             -9.9507   YY=             -9.9507   ZZ=             -9.8559
   XY=              0.0000   XZ=              0.0000   YZ=              0.0000
 Traceless Quadrupole moment (field-independent basis, Debye-Ang):
   XX=             -0.0316   YY=             -0.0316   ZZ=              0.0632
   XY=              0.0000   XZ=              0.0000   YZ=              0.0000
 Octapole moment (field-independent basis, Debye-Ang**2):
  XXX=              0.6628  YYY=              0.0000  ZZZ=            -15.0048  XYY=             -0.6628
  XXY=              0.0000  XXZ=             -5.9691  XZZ=              0.0000  YZZ=              0.0000
  YYZ=             -5.9691  XYZ=              0.0000
 Hexadecapole moment (field-independent basis, Debye-Ang**3):
 XXXX=            -18.4952 YYYY=            -18.4951 ZZZZ=           -141.9623 XXXY=              0.0000
 XXXZ=             -0.4217 YYYX=              0.0000 YYYZ=              0.0000 ZZZX=              0.0000
 ZZZY=              0.0000 XXYY=             -6.1651 XXZZ=            -27.5661 YYZZ=            -27.5661
 XXYZ=              0.0000 YYXZ=              0.4217 ZZXY=              0.0000
 N-N= 1.482867026550D+01 E-N=-1.845182631241D+02  KE= 6.076719330853D+01
                          Isotropic Fermi Contact Couplings
        Atom                 a.u.       MegaHertz       Gauss      10(-4) cm-1
     1  C(13)              0.00202       2.26870       0.80953       0.75676
     2  H(1)               0.00027       1.21538       0.43368       0.40541
     3  H(1)              -0.00002      -0.08666      -0.03092      -0.02891
     4  H(1)              -0.00002      -0.08666      -0.03092      -0.02891
     5  H(1)              -0.00002      -0.08666      -0.03092      -0.02891
     6  H(1)               0.28622    1279.35167     456.50448     426.74578
 --------------------------------------------------------
       Center         ----  Spin Dipole Couplings  ----
                      3XX-RR        3YY-RR        3ZZ-RR
 --------------------------------------------------------
     1   Atom       -0.006162     -0.006162      0.012324
     2   Atom       -0.007976     -0.007976      0.015951
     3   Atom       -0.001134     -0.002154      0.003288
     4   Atom       -0.001899     -0.001389      0.003288
     5   Atom       -0.001899     -0.001389      0.003288
     6   Atom        0.000061      0.000061     -0.000122
 --------------------------------------------------------
                        XY            XZ            YZ
 --------------------------------------------------------
     1   Atom        0.000000      0.000000      0.000000
     2   Atom        0.000000      0.000000      0.000000
     3   Atom        0.000000     -0.001434      0.000000
     4   Atom        0.000442      0.000717      0.001241
     5   Atom       -0.000442      0.000717     -0.001241
     6   Atom        0.000000      0.000000      0.000000
 --------------------------------------------------------


 ---------------------------------------------------------------------------------
              Anisotropic Spin Dipole Couplings in Principal Axis System
 ---------------------------------------------------------------------------------

       Atom             a.u.   MegaHertz   Gauss  10(-4) cm-1        Axes

              Baa    -0.0062    -0.827    -0.295    -0.276  0.0000  1.0000  0.0000
     1 C(13)  Bbb    -0.0062    -0.827    -0.295    -0.276  1.0000  0.0000  0.0000
              Bcc     0.0123     1.654     0.590     0.552  0.0000  0.0000  1.0000
 
              Baa    -0.0080    -4.255    -1.518    -1.419  1.0000  0.0000  0.0000
     2 H(1)   Bbb    -0.0080    -4.255    -1.518    -1.419  0.0000  1.0000  0.0000
              Bcc     0.0160     8.511     3.037     2.839  0.0000  0.0000  1.0000
 
              Baa    -0.0022    -1.150    -0.410    -0.383  0.0000  1.0000  0.0000
     3 H(1)   Bbb    -0.0016    -0.831    -0.297    -0.277  0.9589  0.0000  0.2837
              Bcc     0.0037     1.981     0.707     0.661 -0.2837  0.0000  0.9589
 
              Baa    -0.0022    -1.150    -0.410    -0.383  0.8660 -0.5000  0.0000
     4 H(1)   Bbb    -0.0016    -0.831    -0.297    -0.277  0.4795  0.8305 -0.2837
              Bcc     0.0037     1.981     0.707     0.661  0.1418  0.2457  0.9589
 
              Baa    -0.0022    -1.150    -0.410    -0.383  0.8660  0.5000  0.0000
     5 H(1)   Bbb    -0.0016    -0.831    -0.297    -0.277 -0.4795  0.8305  0.2837
              Bcc     0.0037     1.981     0.707     0.661  0.1418 -0.2457  0.9589
 
              Baa    -0.0001    -0.065    -0.023    -0.022  0.0000  0.0000  1.0000
     6 H(1)   Bbb     0.0001     0.033     0.012     0.011  1.0000  0.0000  0.0000
              Bcc     0.0001     0.033     0.012     0.011  0.0000  1.0000  0.0000
 

 ---------------------------------------------------------------------------------

 No NMR shielding tensors so no spin-rotation constants.
 Leave Link  601 at Wed Nov  3 01:28:34 2010, MaxMem=  786432000 cpu:       4.2
 (Enter /share/apps/G09A02/g09/l9999.exe)
 1\1\GINC-COMPUTE-0-7\SP\ULC-BLYP\6-311+G(3df,2p)\C1H5(2)\WENXINZY\03-N
 ov-2010\0\\#p lc-blyp/6-311+g(3df,2p) nosymm scf=tight\\37 H_CH4\\0,2\
 C\H,1,1.089277\H,1,1.0893058,2,109.4691773\H,1,1.0893058,2,109.4691773
 ,3,120.,0\H,1,1.0893058,2,109.4691773,3,-120.,0\H,2,2.7548078,1,180.,3
 ,0.,0\\Version=EM64L-G09RevA.02\HF=-40.8835985\S2=0.750039\S2-1=0.\S2A
 =0.75\RMSD=7.558e-09\Dipole=0.0000003,0.,0.0039035\Quadrupole=-0.02350
 27,-0.0235002,0.0470029,0.,-0.0000005,0.\PG=C03V [C3(H1H1C1),3SGV(H1)]
 \\@


 HIGGLEDY-PIGGLEDY
 NIC'LAUS COPERNICUS
 LOOKED AT THE UNIVERSE,
 SPOKE TO THE THRONG;
 GIVE UP YOUR PTOLOMY,
 RISE UP AND FOLLOW ME,
 HELIOCENTRICALLY
 PTOLEMY'S WRONG.
   -- NANCY L. STARK
 Job cpu time:  0 days  0 hours  4 minutes  6.3 seconds.
 File lengths (MBytes):  RWF=      9 Int=      0 D2E=      0 Chk=      1 Scr=      1
 Normal termination of Gaussian 09 at Wed Nov  3 01:28:34 2010.
