 Entering Gaussian System, Link 0=/share/apps/G09A02/g09/g09
 Input=./.script12553/Job_H_CH4_41.com
 Output=./.script12553/Job_H_CH4_41.log
 Initial command:
 /share/apps/G09A02/g09/l1.exe /state/partition1/wenxinzy/scratch/Gau-16742.inp -scrdir=/state/partition1/wenxinzy/scratch/
 Default is to use a total of   8 processors:
                                8 via shared-memory
                                1 via Linda
 Entering Link 1 = /share/apps/G09A02/g09/l1.exe PID=     16743.
  
 Copyright (c) 1988,1990,1992,1993,1995,1998,2003,2009, Gaussian, Inc.
                  All Rights Reserved.
  
 This is part of the Gaussian(R) 09 program.  It is based on
 the Gaussian(R) 03 system (copyright 2003, Gaussian, Inc.),
 the Gaussian(R) 98 system (copyright 1998, Gaussian, Inc.),
 the Gaussian(R) 94 system (copyright 1995, Gaussian, Inc.),
 the Gaussian 92(TM) system (copyright 1992, Gaussian, Inc.),
 the Gaussian 90(TM) system (copyright 1990, Gaussian, Inc.),
 the Gaussian 88(TM) system (copyright 1988, Gaussian, Inc.),
 the Gaussian 86(TM) system (copyright 1986, Carnegie Mellon
 University), and the Gaussian 82(TM) system (copyright 1983,
 Carnegie Mellon University). Gaussian is a federally registered
 trademark of Gaussian, Inc.
  
 This software contains proprietary and confidential information,
 including trade secrets, belonging to Gaussian, Inc.
  
 This software is provided under written license and may be
 used, copied, transmitted, or stored only in accord with that
 written license.
  
 The following legend is applicable only to US Government
 contracts under FAR:
  
                    RESTRICTED RIGHTS LEGEND
  
 Use, reproduction and disclosure by the US Government is
 subject to restrictions as set forth in subparagraphs (a)
 and (c) of the Commercial Computer Software - Restricted
 Rights clause in FAR 52.227-19.
  
 Gaussian, Inc.
 340 Quinnipiac St., Bldg. 40, Wallingford CT 06492
  
  
 ---------------------------------------------------------------
 Warning -- This program may not be used in any manner that
 competes with the business of Gaussian, Inc. or will provide
 assistance to any competitor of Gaussian, Inc.  The licensee
 of this program is prohibited from giving any competitor of
 Gaussian, Inc. access to this program.  By using this program,
 the user acknowledges that Gaussian, Inc. is engaged in the
 business of creating and licensing software in the field of
 computational chemistry and represents and warrants to the
 licensee that it is not a competitor of Gaussian, Inc. and that
 it will not use this program in any manner prohibited above.
 ---------------------------------------------------------------
  

 Cite this work as:
 Gaussian 09, Revision A.02,
 M. J. Frisch, G. W. Trucks, H. B. Schlegel, G. E. Scuseria, 
 M. A. Robb, J. R. Cheeseman, G. Scalmani, V. Barone, B. Mennucci, 
 G. A. Petersson, H. Nakatsuji, M. Caricato, X. Li, H. P. Hratchian, 
 A. F. Izmaylov, J. Bloino, G. Zheng, J. L. Sonnenberg, M. Hada, 
 M. Ehara, K. Toyota, R. Fukuda, J. Hasegawa, M. Ishida, T. Nakajima, 
 Y. Honda, O. Kitao, H. Nakai, T. Vreven, J. A. Montgomery, Jr., 
 J. E. Peralta, F. Ogliaro, M. Bearpark, J. J. Heyd, E. Brothers, 
 K. N. Kudin, V. N. Staroverov, R. Kobayashi, J. Normand, 
 K. Raghavachari, A. Rendell, J. C. Burant, S. S. Iyengar, J. Tomasi, 
 M. Cossi, N. Rega, J. M. Millam, M. Klene, J. E. Knox, J. B. Cross, 
 V. Bakken, C. Adamo, J. Jaramillo, R. Gomperts, R. E. Stratmann, 
 O. Yazyev, A. J. Austin, R. Cammi, C. Pomelli, J. W. Ochterski, 
 R. L. Martin, K. Morokuma, V. G. Zakrzewski, G. A. Voth, 
 P. Salvador, J. J. Dannenberg, S. Dapprich, A. D. Daniels, 
 O. Farkas, J. B. Foresman, J. V. Ortiz, J. Cioslowski, 
 and D. J. Fox, Gaussian, Inc., Wallingford CT, 2009.
 
 ******************************************
 Gaussian 09:  EM64L-G09RevA.02 11-Jun-2009
                 3-Nov-2010 
 ******************************************
 %chk=/state/partition1/wenxinzy/scratch/H_CH4_41.chk
 %nproc=8
 Will use up to    8 processors via shared memory.
 %mem=6000mb
 -------------------------------------------
 #p lc-blyp/6-311+g(3df,2p) nosymm scf=tight
 -------------------------------------------
 1/38=1/1;
 2/12=2,15=1,17=6,18=5,40=1/2;
 3/5=4,6=6,7=216,11=2,16=1,25=1,30=1,74=1000402/1,2,3;
 4//1;
 5/5=2,32=2,38=5/2;
 6/7=2,8=2,9=2,10=2,28=1/1;
 99/5=1,9=1/99;
 Leave Link    1 at Wed Nov  3 01:30:40 2010, MaxMem=  786432000 cpu:       0.4
 (Enter /share/apps/G09A02/g09/l101.exe)
 --------
 42 H_CH4
 --------
 Symbolic Z-matrix:
 Charge =  0 Multiplicity = 2
 C
 H1                   C    R1
 H2                   C    R2       H1   A1
 H3                   C    R2       H1   A1       H2    120.     0
 H4                   C    R2       H1   A1       H2   -120.     0
 H5                   H1   R3       C     180.     H2    0.       0
       Variables:
  R1                    1.08927                  
  R2                    1.0893                   
  A1                  109.46869                  
  R3                    2.87293                  
 
 NAtoms=      6 NQM=      6 NQMF=      0 NMic=      0 NMicF=      0 NTot=      6.
                    Isotopes and Nuclear Properties:
 (Nuclear quadrupole moments (NQMom) in fm**2, nuclear magnetic moments (NMagM)
  in nuclear magnetons)

  Atom         1           2           3           4           5           6
 IAtWgt=          12           1           1           1           1           1
 AtmWgt=  12.0000000   1.0078250   1.0078250   1.0078250   1.0078250   1.0078250
 NucSpn=           0           1           1           1           1           1
 AtZEff=   0.0000000   0.0000000   0.0000000   0.0000000   0.0000000   0.0000000
 NQMom=    0.0000000   0.0000000   0.0000000   0.0000000   0.0000000   0.0000000
 NMagM=    0.0000000   2.7928460   2.7928460   2.7928460   2.7928460   2.7928460
 Leave Link  101 at Wed Nov  3 01:30:40 2010, MaxMem=  786432000 cpu:       1.2
 (Enter /share/apps/G09A02/g09/l202.exe)
                          Input orientation:                          
 ---------------------------------------------------------------------
 Center     Atomic      Atomic             Coordinates (Angstroms)
 Number     Number       Type             X           Y           Z
 ---------------------------------------------------------------------
      1          6           0        0.000000    0.000000    0.000000
      2          1           0        0.000000    0.000000    1.089269
      3          1           0        1.027016    0.000000   -0.363054
      4          1           0       -0.513508   -0.889422   -0.363054
      5          1           0       -0.513508    0.889422   -0.363054
      6          1           0        0.000000    0.000000    3.962203
 ---------------------------------------------------------------------
                    Distance matrix (angstroms):
                    1          2          3          4          5
     1  C    0.000000
     2  H    1.089269   0.000000
     3  H    1.089298   1.778764   0.000000
     4  H    1.089298   1.778764   1.778843   0.000000
     5  H    1.089298   1.778764   1.778843   1.778843   0.000000
     6  H    3.962203   2.872934   4.445515   4.445515   4.445515
                    6
     6  H    0.000000
 Symmetry turned off by external request.
 Stoichiometry    CH5(2)
 Framework group  C3V[C3(HHC),3SGV(H)]
 Deg. of freedom     4
 Full point group                 C3V     NOp   6
 Rotational constants (GHZ):    158.4734782     27.9603459     27.9603459
 Leave Link  202 at Wed Nov  3 01:30:40 2010, MaxMem=  786432000 cpu:       0.0
 (Enter /share/apps/G09A02/g09/l301.exe)
 Standard basis: 6-311+G(3df,2p) (5D, 7F)
 Ernie: Thresh=  0.10000D-02 Tol=  0.10000D-05 Strict=F.
 Integral buffers will be    131072 words long.
 Raffenetti 2 integral format.
 Two-electron integral symmetry is turned off.
    84 basis functions,   113 primitive gaussians,    90 cartesian basis functions
     6 alpha electrons        5 beta electrons
       nuclear repulsion energy        14.7867816360 Hartrees.
 IExCor=10402 DFT=T Ex=LC-B+HF Corr=LYP ExCW=0 ScaHFX=  1.000000
 ScaDFX=  1.000000  1.000000  1.000000  1.000000 ScalE2=  1.000000  1.000000
 IRadAn=      0 IRanWt=     -1 IRanGd=            0 ICorTp=0
  HFx wShort=  0.000000 wLong=  0.470000 cFull=  0.000000 cShort=  0.000000 cLong=  1.000000
  DFx wShort=  0.000000 wLong=  0.470000 cFull=  0.000000 cShort=  0.000000 cLong=  1.000000
 NAtoms=    6 NActive=    6 NUniq=    6 SFac= 7.50D-01 NAtFMM=   80 NAOKFM=F Big=F
 Leave Link  301 at Wed Nov  3 01:30:40 2010, MaxMem=  786432000 cpu:       0.7
 (Enter /share/apps/G09A02/g09/l302.exe)
 NPDir=0 NMtPBC=     1 NCelOv=     1 NCel=       1 NClECP=     1 NCelD=      1
         NCelK=      1 NCelE2=     1 NClLst=     1 CellRange=     0.0.
 One-electron integrals computed using PRISM.
 NBasis=    84 RedAO= T  NBF=    84
 NBsUse=    84 1.00D-06 NBFU=    84
 Precomputing XC quadrature grid using
 IXCGrd= 2 IRadAn=           0 IRanWt=          -1 IRanGd=           0 AccXCQ= 1.00D-10.
 NRdTot=     384 NPtTot=       48740 NUsed=       51519 NTot=       51551
 NSgBfM=    90    90    90    90    90 NAtAll=     6     6.
 Leave Link  302 at Wed Nov  3 01:30:41 2010, MaxMem=  786432000 cpu:       2.7
 (Enter /share/apps/G09A02/g09/l303.exe)
 DipDrv:  MaxL=1.
 Leave Link  303 at Wed Nov  3 01:30:41 2010, MaxMem=  786432000 cpu:       0.9
 (Enter /share/apps/G09A02/g09/l401.exe)
 Harris functional with IExCor=10402 diagonalized for initial guess.
 ExpMin= 4.38D-02 ExpMax= 4.56D+03 ExpMxC= 6.82D+02 IAcc=2 IRadAn=         0 AccDes= 0.00D+00
 HarFok:  IExCor=10402 AccDes= 0.00D+00 IRadAn=         0 IDoV= 1
 ScaDFX=  1.000000  1.000000  1.000000  1.000000
 FoFCou: FMM=F IPFlag=           0 FMFlag=      100000 FMFlg1=           0
         NFxFlg=           0 DoJE=T BraDBF=F KetDBF=T FulRan=T
         Omega=  0.000000  0.000000  1.000000  0.000000  0.000000 ICntrl=     500 IOpCl=  0
         NMat0=    1 NMatS0=    1 NMatT0=    0 NMatD0=    1 NMtDS0=    0 NMtDT0=    0
         I1Cent=           4 NGrid=           0.
 Symmetry not used in FoFCou.
 Harris En= -38.5631411961591    
 Initial guess <Sx>= 0.0000 <Sy>= 0.0000 <Sz>= 0.5000 <S**2>= 0.7500 S= 0.5000
 Leave Link  401 at Wed Nov  3 01:30:41 2010, MaxMem=  786432000 cpu:       3.6
 (Enter /share/apps/G09A02/g09/l502.exe)
 UHF open shell SCF:
 Requested convergence on RMS density matrix=1.00D-08 within 128 cycles.
 Requested convergence on MAX density matrix=1.00D-06.
 Requested convergence on             energy=1.00D-06.
 No special actions if energy rises.
 Using DIIS extrapolation, IDIIS=  1040.
 Two-electron integral symmetry not used.
        51452 words used for storage of precomputed grid.
 IEnd=       95170 IEndB=       95170 NGot=   786432000 MDV=   786361661
 LenX=   786361661 LenY=   786353120
 Fock matrices will be formed incrementally for  20 cycles.

 Cycle   1  Pass 1  IDiag  1:
 FoFJK:  IHMeth= 1 ICntrl=     0 DoSepK=T KAlg= 1 I1Cent= 0 FoldK=F
 FoFCou: FMM=F IPFlag=           0 FMFlag=      100000 FMFlg1=           0
         NFxFlg=           0 DoJE=T BraDBF=F KetDBF=F FulRan=T
         Omega=  0.000000  0.000000  1.000000  0.000000  0.000000 ICntrl=     500 IOpCl=  0
         NMat0=    1 NMatS0=    1 NMatT0=    0 NMatD0=    1 NMtDS0=    0 NMtDT0=    0
         I1Cent=           0 NGrid=           0.
 Symmetry not used in FoFCou.
 E= -40.8001089691812    
 DIIS: error= 3.21D-02 at cycle   1 NSaved=   1.
 NSaved= 1 IEnMin= 1 EnMin= -40.8001089691812     IErMin= 1 ErrMin= 3.21D-02
 ErrMax= 3.21D-02 EMaxC= 1.00D-01 BMatC= 2.54D-01 BMatP= 2.54D-01
 IDIUse=3 WtCom= 6.79D-01 WtEn= 3.21D-01
 Coeff-Com:  0.100D+01
 Coeff-En:   0.100D+01
 Coeff:      0.100D+01
 Gap=     0.514 Goal=   None    Shift=    0.000
 Gap=     0.351 Goal=   None    Shift=    0.000
 GapD=    0.351 DampG=1.000 DampE=0.500 DampFc=0.5000 IDamp=-1.
 Damping current iteration by 5.00D-01
 RMSDP=4.39D-03 MaxDP=1.77D-01              OVMax= 1.62D-01

 Cycle   2  Pass 1  IDiag  1:
 RMSU=  1.71D-03    CP:  9.11D-01
 FoFJK:  IHMeth= 1 ICntrl=     0 DoSepK=T KAlg= 1 I1Cent= 0 FoldK=F
 E= -40.8415900889828     Delta-E=       -0.041481119802 Rises=F Damp=T
 DIIS: error= 1.27D-02 at cycle   2 NSaved=   2.
 NSaved= 2 IEnMin= 2 EnMin= -40.8415900889828     IErMin= 2 ErrMin= 1.27D-02
 ErrMax= 1.27D-02 EMaxC= 1.00D-01 BMatC= 2.17D-02 BMatP= 2.54D-01
 IDIUse=3 WtCom= 8.73D-01 WtEn= 1.27D-01
 Coeff-Com: -0.223D+00 0.122D+01
 Coeff-En:   0.000D+00 0.100D+01
 Coeff:     -0.195D+00 0.119D+01
 Gap=     0.570 Goal=   None    Shift=    0.000
 Gap=     0.470 Goal=   None    Shift=    0.000
 RMSDP=2.32D-03 MaxDP=1.17D-01 DE=-4.15D-02 OVMax= 4.45D-02

 Cycle   3  Pass 1  IDiag  1:
 RMSU=  8.74D-04    CP:  8.38D-01  1.97D+00
 FoFJK:  IHMeth= 1 ICntrl=     0 DoSepK=T KAlg= 1 I1Cent= 0 FoldK=F
 E= -40.8826402366337     Delta-E=       -0.041050147651 Rises=F Damp=F
 DIIS: error= 3.55D-03 at cycle   3 NSaved=   3.
 NSaved= 3 IEnMin= 3 EnMin= -40.8826402366337     IErMin= 3 ErrMin= 3.55D-03
 ErrMax= 3.55D-03 EMaxC= 1.00D-01 BMatC= 9.41D-04 BMatP= 2.17D-02
 IDIUse=3 WtCom= 9.64D-01 WtEn= 3.55D-02
 Coeff-Com:  0.438D-01-0.292D+00 0.125D+01
 Coeff-En:   0.000D+00 0.000D+00 0.100D+01
 Coeff:      0.422D-01-0.282D+00 0.124D+01
 Gap=     0.515 Goal=   None    Shift=    0.000
 Gap=     0.502 Goal=   None    Shift=    0.000
 RMSDP=5.79D-04 MaxDP=3.06D-02 DE=-4.11D-02 OVMax= 3.66D-02

 Cycle   4  Pass 1  IDiag  1:
 RMSU=  2.68D-04    CP:  8.23D-01  2.15D+00  1.31D+00
 FoFJK:  IHMeth= 1 ICntrl=     0 DoSepK=T KAlg= 1 I1Cent= 0 FoldK=F
 E= -40.8835547607592     Delta-E=       -0.000914524126 Rises=F Damp=F
 DIIS: error= 4.80D-04 at cycle   4 NSaved=   4.
 NSaved= 4 IEnMin= 4 EnMin= -40.8835547607592     IErMin= 4 ErrMin= 4.80D-04
 ErrMax= 4.80D-04 EMaxC= 1.00D-01 BMatC= 2.22D-05 BMatP= 9.41D-04
 IDIUse=3 WtCom= 9.95D-01 WtEn= 4.80D-03
 Coeff-Com: -0.400D-02-0.317D-02-0.106D+00 0.111D+01
 Coeff-En:   0.000D+00 0.000D+00 0.000D+00 0.100D+01
 Coeff:     -0.398D-02-0.315D-02-0.106D+00 0.111D+01
 Gap=     0.513 Goal=   None    Shift=    0.000
 Gap=     0.502 Goal=   None    Shift=    0.000
 RMSDP=9.07D-05 MaxDP=4.94D-03 DE=-9.15D-04 OVMax= 5.81D-03

 Cycle   5  Pass 1  IDiag  1:
 RMSU=  3.85D-05    CP:  8.21D-01  2.17D+00  1.34D+00  1.22D+00
 FoFJK:  IHMeth= 1 ICntrl=     0 DoSepK=T KAlg= 1 I1Cent= 0 FoldK=F
 E= -40.8835744849677     Delta-E=       -0.000019724208 Rises=F Damp=F
 DIIS: error= 6.16D-05 at cycle   5 NSaved=   5.
 NSaved= 5 IEnMin= 5 EnMin= -40.8835744849677     IErMin= 5 ErrMin= 6.16D-05
 ErrMax= 6.16D-05 EMaxC= 1.00D-01 BMatC= 2.38D-07 BMatP= 2.22D-05
 IDIUse=1 WtCom= 1.00D+00 WtEn= 0.00D+00
 Coeff-Com:  0.607D-03 0.298D-02 0.122D-01-0.243D+00 0.123D+01
 Coeff:      0.607D-03 0.298D-02 0.122D-01-0.243D+00 0.123D+01
 Gap=     0.513 Goal=   None    Shift=    0.000
 Gap=     0.502 Goal=   None    Shift=    0.000
 RMSDP=1.85D-05 MaxDP=7.62D-04 DE=-1.97D-05 OVMax= 4.86D-04

 Cycle   6  Pass 1  IDiag  1:
 RMSU=  1.98D-06    CP:  8.21D-01  2.17D+00  1.33D+00  1.24D+00  1.42D+00
 FoFJK:  IHMeth= 1 ICntrl=     0 DoSepK=T KAlg= 1 I1Cent= 0 FoldK=F
 E= -40.8835746913445     Delta-E=       -0.000000206377 Rises=F Damp=F
 DIIS: error= 1.14D-05 at cycle   6 NSaved=   6.
 NSaved= 6 IEnMin= 6 EnMin= -40.8835746913445     IErMin= 6 ErrMin= 1.14D-05
 ErrMax= 1.14D-05 EMaxC= 1.00D-01 BMatC= 1.00D-08 BMatP= 2.38D-07
 IDIUse=1 WtCom= 1.00D+00 WtEn= 0.00D+00
 Coeff-Com:  0.233D-05-0.566D-03-0.689D-03 0.303D-01-0.258D+00 0.123D+01
 Coeff:      0.233D-05-0.566D-03-0.689D-03 0.303D-01-0.258D+00 0.123D+01
 Gap=     0.513 Goal=   None    Shift=    0.000
 Gap=     0.502 Goal=   None    Shift=    0.000
 RMSDP=3.12D-06 MaxDP=1.23D-04 DE=-2.06D-07 OVMax= 8.27D-05

 Cycle   7  Pass 1  IDiag  1:
 RMSU=  4.21D-07    CP:  8.21D-01  2.17D+00  1.33D+00  1.25D+00  1.49D+00
                    CP:  1.41D+00
 FoFJK:  IHMeth= 1 ICntrl=     0 DoSepK=T KAlg= 1 I1Cent= 0 FoldK=F
 E= -40.8835747002698     Delta-E=       -0.000000008925 Rises=F Damp=F
 DIIS: error= 3.68D-06 at cycle   7 NSaved=   7.
 NSaved= 7 IEnMin= 7 EnMin= -40.8835747002698     IErMin= 7 ErrMin= 3.68D-06
 ErrMax= 3.68D-06 EMaxC= 1.00D-01 BMatC= 8.69D-10 BMatP= 1.00D-08
 IDIUse=1 WtCom= 1.00D+00 WtEn= 0.00D+00
 Coeff-Com: -0.422D-04-0.146D-03-0.741D-03 0.132D-01-0.589D-01-0.860D-01
 Coeff-Com:  0.113D+01
 Coeff:     -0.422D-04-0.146D-03-0.741D-03 0.132D-01-0.589D-01-0.860D-01
 Coeff:      0.113D+01
 Gap=     0.513 Goal=   None    Shift=    0.000
 Gap=     0.502 Goal=   None    Shift=    0.000
 RMSDP=4.88D-07 MaxDP=1.53D-05 DE=-8.93D-09 OVMax= 1.92D-05

 Cycle   8  Pass 1  IDiag  1:
 RMSU=  8.88D-08    CP:  8.21D-01  2.17D+00  1.33D+00  1.25D+00  1.50D+00
                    CP:  1.52D+00  1.36D+00
 FoFJK:  IHMeth= 1 ICntrl=     0 DoSepK=T KAlg= 1 I1Cent= 0 FoldK=F
 E= -40.8835747009873     Delta-E=       -0.000000000718 Rises=F Damp=F
 DIIS: error= 1.39D-06 at cycle   8 NSaved=   8.
 NSaved= 8 IEnMin= 8 EnMin= -40.8835747009873     IErMin= 8 ErrMin= 1.39D-06
 ErrMax= 1.39D-06 EMaxC= 1.00D-01 BMatC= 1.20D-10 BMatP= 8.69D-10
 IDIUse=1 WtCom= 1.00D+00 WtEn= 0.00D+00
 Coeff-Com:  0.160D-04 0.121D-03 0.439D-03-0.915D-02 0.517D-01-0.766D-01
 Coeff-Com: -0.486D+00 0.152D+01
 Coeff:      0.160D-04 0.121D-03 0.439D-03-0.915D-02 0.517D-01-0.766D-01
 Coeff:     -0.486D+00 0.152D+01
 Gap=     0.513 Goal=   None    Shift=    0.000
 Gap=     0.502 Goal=   None    Shift=    0.000
 RMSDP=1.44D-07 MaxDP=2.83D-06 DE=-7.18D-10 OVMax= 9.35D-06

 Cycle   9  Pass 1  IDiag  1:
 RMSU=  3.05D-08    CP:  8.21D-01  2.17D+00  1.33D+00  1.25D+00  1.50D+00
                    CP:  1.54D+00  1.51D+00  1.85D+00
 FoFJK:  IHMeth= 1 ICntrl=     0 DoSepK=T KAlg= 1 I1Cent= 0 FoldK=F
 E= -40.8835747010953     Delta-E=       -0.000000000108 Rises=F Damp=F
 DIIS: error= 3.49D-07 at cycle   9 NSaved=   9.
 NSaved= 9 IEnMin= 9 EnMin= -40.8835747010953     IErMin= 9 ErrMin= 3.49D-07
 ErrMax= 3.49D-07 EMaxC= 1.00D-01 BMatC= 6.24D-12 BMatP= 1.20D-10
 IDIUse=1 WtCom= 1.00D+00 WtEn= 0.00D+00
 Coeff-Com: -0.443D-07-0.233D-04-0.709D-04 0.163D-02-0.101D-01 0.308D-01
 Coeff-Com:  0.464D-01-0.439D+00 0.137D+01
 Coeff:     -0.443D-07-0.233D-04-0.709D-04 0.163D-02-0.101D-01 0.308D-01
 Coeff:      0.464D-01-0.439D+00 0.137D+01
 Gap=     0.513 Goal=   None    Shift=    0.000
 Gap=     0.502 Goal=   None    Shift=    0.000
 RMSDP=4.15D-08 MaxDP=1.00D-06 DE=-1.08D-10 OVMax= 2.09D-06

 Cycle  10  Pass 1  IDiag  1:
 RMSU=  9.05D-09    CP:  8.21D-01  2.17D+00  1.33D+00  1.25D+00  1.50D+00
                    CP:  1.54D+00  1.52D+00  2.10D+00  1.44D+00
 FoFJK:  IHMeth= 1 ICntrl=     0 DoSepK=T KAlg= 1 I1Cent= 0 FoldK=F
 E= -40.8835747011018     Delta-E=       -0.000000000007 Rises=F Damp=F
 DIIS: error= 5.80D-08 at cycle  10 NSaved=  10.
 NSaved=10 IEnMin=10 EnMin= -40.8835747011018     IErMin=10 ErrMin= 5.80D-08
 ErrMax= 5.80D-08 EMaxC= 1.00D-01 BMatC= 2.43D-13 BMatP= 6.24D-12
 IDIUse=1 WtCom= 1.00D+00 WtEn= 0.00D+00
 Coeff-Com: -0.515D-06 0.898D-05 0.200D-04-0.567D-03 0.368D-02-0.141D-01
 Coeff-Com: -0.668D-02 0.175D+00-0.695D+00 0.154D+01
 Coeff:     -0.515D-06 0.898D-05 0.200D-04-0.567D-03 0.368D-02-0.141D-01
 Coeff:     -0.668D-02 0.175D+00-0.695D+00 0.154D+01
 Gap=     0.513 Goal=   None    Shift=    0.000
 Gap=     0.502 Goal=   None    Shift=    0.000
 RMSDP=7.01D-09 MaxDP=1.23D-07 DE=-6.51D-12 OVMax= 3.15D-07

 SCF Done:  E(ULC-B+HF-LYP) =  -40.8835747011     A.U. after   10 cycles
             Convg  =    0.7010D-08             -V/T =  2.0051
 <Sx>= 0.0000 <Sy>= 0.0000 <Sz>= 0.5000 <S**2>= 0.7500 S= 0.5000
 <L.S>= 0.000000000000E+00
 KE= 4.067566133179D+01 PE=-1.237263226379D+02 EE= 2.738030496902D+01
 Annihilation of the first spin contaminant:
 S**2 before annihilation     0.7500,   after     0.7500
 Leave Link  502 at Wed Nov  3 01:31:10 2010, MaxMem=  786432000 cpu:     231.3
 (Enter /share/apps/G09A02/g09/l601.exe)
 Copying SCF densities to generalized density rwf, IOpCl= 1 IROHF=0.

 **********************************************************************

            Population analysis using the SCF density.

 **********************************************************************

 Alpha  occ. eigenvalues --  -10.11330  -0.85946  -0.52641  -0.52524  -0.52524
 Alpha  occ. eigenvalues --   -0.45008
 Alpha virt. eigenvalues --    0.06280   0.09654   0.09655   0.10676   0.22676
 Alpha virt. eigenvalues --    0.22676   0.22847   0.27314   0.36598   0.36835
 Alpha virt. eigenvalues --    0.36835   0.41862   0.41863   0.42720   0.62331
 Alpha virt. eigenvalues --    0.64708   0.64708   0.68955   0.68955   0.72072
 Alpha virt. eigenvalues --    0.74302   0.79959   0.80285   0.80285   0.93601
 Alpha virt. eigenvalues --    0.99182   0.99191   0.99191   1.10249   1.10249
 Alpha virt. eigenvalues --    1.25209   1.25209   1.26670   1.40980   1.40980
 Alpha virt. eigenvalues --    1.43703   1.69107   2.06620   2.06620   2.07847
 Alpha virt. eigenvalues --    2.07847   2.08356   2.33944   2.51416   2.78777
 Alpha virt. eigenvalues --    2.78777   2.80243   3.09005   3.09005   3.09015
 Alpha virt. eigenvalues --    3.43930   3.43930   3.45115   3.65201   3.65201
 Alpha virt. eigenvalues --    3.65364   3.80201   3.80201   3.88668   4.07947
 Alpha virt. eigenvalues --    4.31083   4.31083   4.32229   4.35662   4.35662
 Alpha virt. eigenvalues --    4.58743   4.58743   4.58751   5.01145   5.89381
 Alpha virt. eigenvalues --    5.89381   5.89415   7.30311   7.30311   7.91480
 Alpha virt. eigenvalues --    7.91480   7.92195  24.29263
  Beta  occ. eigenvalues --  -10.11322  -0.85924  -0.52519  -0.52519  -0.52516
  Beta virt. eigenvalues --   -0.02317   0.06555   0.09566   0.09566   0.11078
  Beta virt. eigenvalues --    0.22663   0.22663   0.23180   0.27286   0.36825
  Beta virt. eigenvalues --    0.36825   0.39930   0.41845   0.41845   0.45909
  Beta virt. eigenvalues --    0.63435   0.64736   0.64736   0.72091   0.73147
  Beta virt. eigenvalues --    0.73147   0.75045   0.79995   0.80287   0.80287
  Beta virt. eigenvalues --    0.95282   0.99182   0.99184   0.99184   1.10245
  Beta virt. eigenvalues --    1.10246   1.25206   1.25206   1.26709   1.40981
  Beta virt. eigenvalues --    1.40981   1.43647   1.69109   2.06628   2.06628
  Beta virt. eigenvalues --    2.07857   2.07857   2.08344   2.51216   2.55131
  Beta virt. eigenvalues --    2.78784   2.78784   2.80271   3.09018   3.09020
  Beta virt. eigenvalues --    3.09021   3.43938   3.43938   3.45122   3.65236
  Beta virt. eigenvalues --    3.65236   3.65392   3.95748   3.95748   4.03672
  Beta virt. eigenvalues --    4.08085   4.31085   4.31085   4.32435   4.35662
  Beta virt. eigenvalues --    4.35662   4.58747   4.58747   4.58753   5.01149
  Beta virt. eigenvalues --    5.89385   5.89385   5.89428   7.30332   7.30332
  Beta virt. eigenvalues --    7.91493   7.91494   7.92224  24.29273
          Condensed to atoms (all electrons):
              1          2          3          4          5          6
     1  C    5.062015   0.397208   0.401365   0.401366   0.401366   0.002549
     2  H    0.397208   0.491996  -0.017543  -0.017543  -0.017543  -0.000724
     3  H    0.401365  -0.017543   0.484024  -0.017114  -0.017114  -0.000055
     4  H    0.401366  -0.017543  -0.017114   0.484024  -0.017114  -0.000055
     5  H    0.401366  -0.017543  -0.017114  -0.017114   0.484024  -0.000055
     6  H    0.002549  -0.000724  -0.000055  -0.000055  -0.000055   0.995930
 Mulliken atomic charges:
              1
     1  C   -0.665868
     2  H    0.164147
     3  H    0.166437
     4  H    0.166437
     5  H    0.166437
     6  H    0.002410
 Sum of Mulliken atomic charges =   0.00000
 Mulliken charges with hydrogens summed into heavy atoms:
              1
     1  C    0.000000
 Sum of Mulliken charges with hydrogens summed into heavy atoms =   0.00000
          Atomic-Atomic Spin Densities.
              1          2          3          4          5          6
     1  C    0.011772   0.000450  -0.000307  -0.000307  -0.000307   0.002179
     2  H    0.000450  -0.011034   0.000737   0.000737   0.000737  -0.001367
     3  H   -0.000307   0.000737  -0.000142  -0.000159  -0.000159  -0.000044
     4  H   -0.000307   0.000737  -0.000159  -0.000142  -0.000159  -0.000043
     5  H   -0.000307   0.000737  -0.000159  -0.000159  -0.000142  -0.000043
     6  H    0.002179  -0.001367  -0.000044  -0.000043  -0.000043   0.995798
 Mulliken atomic spin densities:
              1
     1  C    0.013480
     2  H   -0.009740
     3  H   -0.000073
     4  H   -0.000073
     5  H   -0.000073
     6  H    0.996479
 Sum of Mulliken atomic spin densities =   1.00000
 Electronic spatial extent (au):  <R**2>=             95.1292
 Charge=              0.0000 electrons
 Dipole moment (field-independent basis, Debye):
    X=              0.0000    Y=              0.0000    Z=              0.0114  Tot=              0.0114
 Quadrupole moment (field-independent basis, Debye-Ang):
   XX=             -9.9512   YY=             -9.9512   ZZ=             -9.8469
   XY=              0.0000   XZ=              0.0000   YZ=              0.0000
 Traceless Quadrupole moment (field-independent basis, Debye-Ang):
   XX=             -0.0348   YY=             -0.0348   ZZ=              0.0695
   XY=              0.0000   XZ=              0.0000   YZ=              0.0000
 Octapole moment (field-independent basis, Debye-Ang**2):
  XXX=              0.6628  YYY=              0.0000  ZZZ=            -15.4563  XYY=             -0.6628
  XXY=              0.0000  XXZ=             -6.1388  XZZ=              0.0000  YZZ=              0.0000
  YYZ=             -6.1388  XYZ=              0.0000
 Hexadecapole moment (field-independent basis, Debye-Ang**3):
 XXXX=            -18.4949 YYYY=            -18.4949 ZZZZ=           -149.5491 XXXY=              0.0000
 XXXZ=             -0.4216 YYYX=              0.0000 YYYZ=              0.0000 ZZZX=              0.0000
 ZZZY=              0.0000 XXYY=             -6.1650 XXZZ=            -28.8834 YYZZ=            -28.8834
 XXYZ=              0.0000 YYXZ=              0.4216 ZZXY=              0.0000
 N-N= 1.478678163604D+01 E-N=-1.844167018079D+02  KE= 6.076793474702D+01
                          Isotropic Fermi Contact Couplings
        Atom                 a.u.       MegaHertz       Gauss      10(-4) cm-1
     1  C(13)              0.00147       1.64863       0.58827       0.54992
     2  H(1)               0.00024       1.08189       0.38605       0.36088
     3  H(1)              -0.00001      -0.05887      -0.02101      -0.01964
     4  H(1)              -0.00001      -0.05888      -0.02101      -0.01964
     5  H(1)              -0.00001      -0.05888      -0.02101      -0.01964
     6  H(1)               0.28622    1279.38993     456.51812     426.75854
 --------------------------------------------------------
       Center         ----  Spin Dipole Couplings  ----
                      3XX-RR        3YY-RR        3ZZ-RR
 --------------------------------------------------------
     1   Atom       -0.005056     -0.005056      0.010113
     2   Atom       -0.006938     -0.006938      0.013876
     3   Atom       -0.001128     -0.001935      0.003063
     4   Atom       -0.001733     -0.001330      0.003063
     5   Atom       -0.001733     -0.001330      0.003063
     6   Atom        0.000029      0.000029     -0.000057
 --------------------------------------------------------
                        XY            XZ            YZ
 --------------------------------------------------------
     1   Atom        0.000000      0.000000      0.000000
     2   Atom        0.000000      0.000000      0.000000
     3   Atom        0.000000     -0.001266      0.000000
     4   Atom        0.000349      0.000633      0.001097
     5   Atom       -0.000349      0.000633     -0.001097
     6   Atom        0.000000      0.000000      0.000000
 --------------------------------------------------------


 ---------------------------------------------------------------------------------
              Anisotropic Spin Dipole Couplings in Principal Axis System
 ---------------------------------------------------------------------------------

       Atom             a.u.   MegaHertz   Gauss  10(-4) cm-1        Axes

              Baa    -0.0051    -0.679    -0.242    -0.226  0.0000  1.0000  0.0000
     1 C(13)  Bbb    -0.0051    -0.679    -0.242    -0.226  1.0000  0.0000  0.0000
              Bcc     0.0101     1.357     0.484     0.453  0.0000  0.0000  1.0000
 
              Baa    -0.0069    -3.702    -1.321    -1.235  0.0000  1.0000  0.0000
     2 H(1)   Bbb    -0.0069    -3.702    -1.321    -1.235  1.0000  0.0000  0.0000
              Bcc     0.0139     7.403     2.642     2.470  0.0000  0.0000  1.0000
 
              Baa    -0.0019    -1.032    -0.368    -0.344  0.0000  1.0000  0.0000
     3 H(1)   Bbb    -0.0015    -0.790    -0.282    -0.264  0.9633  0.0000  0.2685
              Bcc     0.0034     1.823     0.650     0.608 -0.2685  0.0000  0.9633
 
              Baa    -0.0019    -1.032    -0.368    -0.344  0.8660 -0.5000  0.0000
     4 H(1)   Bbb    -0.0015    -0.790    -0.282    -0.264  0.4816  0.8342 -0.2685
              Bcc     0.0034     1.823     0.650     0.608  0.1342  0.2325  0.9633
 
              Baa    -0.0019    -1.032    -0.368    -0.344  0.8660  0.5000  0.0000
     5 H(1)   Bbb    -0.0015    -0.790    -0.282    -0.264 -0.4816  0.8342  0.2685
              Bcc     0.0034     1.823     0.650     0.608  0.1342 -0.2325  0.9633
 
              Baa    -0.0001    -0.030    -0.011    -0.010  0.0000  0.0000  1.0000
     6 H(1)   Bbb     0.0000     0.015     0.005     0.005  1.0000  0.0000  0.0000
              Bcc     0.0000     0.015     0.005     0.005  0.0000  1.0000  0.0000
 

 ---------------------------------------------------------------------------------

 No NMR shielding tensors so no spin-rotation constants.
 Leave Link  601 at Wed Nov  3 01:31:11 2010, MaxMem=  786432000 cpu:       3.9
 (Enter /share/apps/G09A02/g09/l9999.exe)
 1\1\GINC-COMPUTE-0-7\SP\ULC-BLYP\6-311+G(3df,2p)\C1H5(2)\WENXINZY\03-N
 ov-2010\0\\#p lc-blyp/6-311+g(3df,2p) nosymm scf=tight\\42 H_CH4\\0,2\
 C\H,1,1.0892686\H,1,1.0892977,2,109.468691\H,1,1.0892977,2,109.468691,
 3,120.,0\H,1,1.0892977,2,109.468691,3,-120.,0\H,2,2.8729341,1,180.,3,0
 .,0\\Version=EM64L-G09RevA.02\HF=-40.8835747\S2=0.750027\S2-1=0.\S2A=0
 .75\RMSD=7.010e-09\Dipole=0.0000002,0.,0.0044946\Quadrupole=-0.0258513
 ,-0.0258488,0.0517001,0.,-0.0000008,0.\PG=C03V [C3(H1H1C1),3SGV(H1)]\\
 @


 MAN IS THE MEASURE OF ALL THINGS.
  -- PROTAGORAS (5TH CENTURY B.C.)
 Job cpu time:  0 days  0 hours  4 minutes  5.9 seconds.
 File lengths (MBytes):  RWF=      9 Int=      0 D2E=      0 Chk=      1 Scr=      1
 Normal termination of Gaussian 09 at Wed Nov  3 01:31:11 2010.
