 Entering Gaussian System, Link 0=/share/apps/G09A02/g09/g09
 Input=./.script12553/Job_H_CH4_38.com
 Output=./.script12553/Job_H_CH4_38.log
 Initial command:
 /share/apps/G09A02/g09/l1.exe /state/partition1/wenxinzy/scratch/Gau-16435.inp -scrdir=/state/partition1/wenxinzy/scratch/
 Default is to use a total of   8 processors:
                                8 via shared-memory
                                1 via Linda
 Entering Link 1 = /share/apps/G09A02/g09/l1.exe PID=     16436.
  
 Copyright (c) 1988,1990,1992,1993,1995,1998,2003,2009, Gaussian, Inc.
                  All Rights Reserved.
  
 This is part of the Gaussian(R) 09 program.  It is based on
 the Gaussian(R) 03 system (copyright 2003, Gaussian, Inc.),
 the Gaussian(R) 98 system (copyright 1998, Gaussian, Inc.),
 the Gaussian(R) 94 system (copyright 1995, Gaussian, Inc.),
 the Gaussian 92(TM) system (copyright 1992, Gaussian, Inc.),
 the Gaussian 90(TM) system (copyright 1990, Gaussian, Inc.),
 the Gaussian 88(TM) system (copyright 1988, Gaussian, Inc.),
 the Gaussian 86(TM) system (copyright 1986, Carnegie Mellon
 University), and the Gaussian 82(TM) system (copyright 1983,
 Carnegie Mellon University). Gaussian is a federally registered
 trademark of Gaussian, Inc.
  
 This software contains proprietary and confidential information,
 including trade secrets, belonging to Gaussian, Inc.
  
 This software is provided under written license and may be
 used, copied, transmitted, or stored only in accord with that
 written license.
  
 The following legend is applicable only to US Government
 contracts under FAR:
  
                    RESTRICTED RIGHTS LEGEND
  
 Use, reproduction and disclosure by the US Government is
 subject to restrictions as set forth in subparagraphs (a)
 and (c) of the Commercial Computer Software - Restricted
 Rights clause in FAR 52.227-19.
  
 Gaussian, Inc.
 340 Quinnipiac St., Bldg. 40, Wallingford CT 06492
  
  
 ---------------------------------------------------------------
 Warning -- This program may not be used in any manner that
 competes with the business of Gaussian, Inc. or will provide
 assistance to any competitor of Gaussian, Inc.  The licensee
 of this program is prohibited from giving any competitor of
 Gaussian, Inc. access to this program.  By using this program,
 the user acknowledges that Gaussian, Inc. is engaged in the
 business of creating and licensing software in the field of
 computational chemistry and represents and warrants to the
 licensee that it is not a competitor of Gaussian, Inc. and that
 it will not use this program in any manner prohibited above.
 ---------------------------------------------------------------
  

 Cite this work as:
 Gaussian 09, Revision A.02,
 M. J. Frisch, G. W. Trucks, H. B. Schlegel, G. E. Scuseria, 
 M. A. Robb, J. R. Cheeseman, G. Scalmani, V. Barone, B. Mennucci, 
 G. A. Petersson, H. Nakatsuji, M. Caricato, X. Li, H. P. Hratchian, 
 A. F. Izmaylov, J. Bloino, G. Zheng, J. L. Sonnenberg, M. Hada, 
 M. Ehara, K. Toyota, R. Fukuda, J. Hasegawa, M. Ishida, T. Nakajima, 
 Y. Honda, O. Kitao, H. Nakai, T. Vreven, J. A. Montgomery, Jr., 
 J. E. Peralta, F. Ogliaro, M. Bearpark, J. J. Heyd, E. Brothers, 
 K. N. Kudin, V. N. Staroverov, R. Kobayashi, J. Normand, 
 K. Raghavachari, A. Rendell, J. C. Burant, S. S. Iyengar, J. Tomasi, 
 M. Cossi, N. Rega, J. M. Millam, M. Klene, J. E. Knox, J. B. Cross, 
 V. Bakken, C. Adamo, J. Jaramillo, R. Gomperts, R. E. Stratmann, 
 O. Yazyev, A. J. Austin, R. Cammi, C. Pomelli, J. W. Ochterski, 
 R. L. Martin, K. Morokuma, V. G. Zakrzewski, G. A. Voth, 
 P. Salvador, J. J. Dannenberg, S. Dapprich, A. D. Daniels, 
 O. Farkas, J. B. Foresman, J. V. Ortiz, J. Cioslowski, 
 and D. J. Fox, Gaussian, Inc., Wallingford CT, 2009.
 
 ******************************************
 Gaussian 09:  EM64L-G09RevA.02 11-Jun-2009
                 3-Nov-2010 
 ******************************************
 %chk=/state/partition1/wenxinzy/scratch/H_CH4_38.chk
 %nproc=8
 Will use up to    8 processors via shared memory.
 %mem=6000mb
 -------------------------------------------
 #p lc-blyp/6-311+g(3df,2p) nosymm scf=tight
 -------------------------------------------
 1/38=1/1;
 2/12=2,15=1,17=6,18=5,40=1/2;
 3/5=4,6=6,7=216,11=2,16=1,25=1,30=1,74=1000402/1,2,3;
 4//1;
 5/5=2,32=2,38=5/2;
 6/7=2,8=2,9=2,10=2,28=1/1;
 99/5=1,9=1/99;
 Leave Link    1 at Wed Nov  3 01:29:06 2010, MaxMem=  786432000 cpu:       0.5
 (Enter /share/apps/G09A02/g09/l101.exe)
 --------
 39 H_CH4
 --------
 Symbolic Z-matrix:
 Charge =  0 Multiplicity = 2
 C
 H1                   C    R1
 H2                   C    R2       H1   A1
 H3                   C    R2       H1   A1       H2    120.     0
 H4                   C    R2       H1   A1       H2   -120.     0
 H5                   H1   R3       C     180.     H2    0.       0
       Variables:
  R1                    1.08927                  
  R2                    1.0893                   
  A1                  109.46894                  
  R3                    2.81083                  
 
 NAtoms=      6 NQM=      6 NQMF=      0 NMic=      0 NMicF=      0 NTot=      6.
                    Isotopes and Nuclear Properties:
 (Nuclear quadrupole moments (NQMom) in fm**2, nuclear magnetic moments (NMagM)
  in nuclear magnetons)

  Atom         1           2           3           4           5           6
 IAtWgt=          12           1           1           1           1           1
 AtmWgt=  12.0000000   1.0078250   1.0078250   1.0078250   1.0078250   1.0078250
 NucSpn=           0           1           1           1           1           1
 AtZEff=   0.0000000   0.0000000   0.0000000   0.0000000   0.0000000   0.0000000
 NQMom=    0.0000000   0.0000000   0.0000000   0.0000000   0.0000000   0.0000000
 NMagM=    0.0000000   2.7928460   2.7928460   2.7928460   2.7928460   2.7928460
 Leave Link  101 at Wed Nov  3 01:29:06 2010, MaxMem=  786432000 cpu:       1.2
 (Enter /share/apps/G09A02/g09/l202.exe)
                          Input orientation:                          
 ---------------------------------------------------------------------
 Center     Atomic      Atomic             Coordinates (Angstroms)
 Number     Number       Type             X           Y           Z
 ---------------------------------------------------------------------
      1          6           0        0.000000    0.000000    0.000000
      2          1           0        0.000000    0.000000    1.089272
      3          1           0        1.027018    0.000000   -0.363060
      4          1           0       -0.513509   -0.889424   -0.363060
      5          1           0       -0.513509    0.889424   -0.363060
      6          1           0        0.000000    0.000000    3.900106
 ---------------------------------------------------------------------
                    Distance matrix (angstroms):
                    1          2          3          4          5
     1  C    0.000000
     2  H    1.089272   0.000000
     3  H    1.089302   1.778773   0.000000
     4  H    1.089302   1.778773   1.778847   0.000000
     5  H    1.089302   1.778773   1.778847   1.778847   0.000000
     6  H    3.900106   2.810834   4.385128   4.385128   4.385128
                    6
     6  H    0.000000
 Symmetry turned off by external request.
 Stoichiometry    CH5(2)
 Framework group  C3V[C3(HHC),3SGV(H)]
 Deg. of freedom     4
 Full point group                 C3V     NOp   6
 Rotational constants (GHZ):    158.4728378     28.6952484     28.6952484
 Leave Link  202 at Wed Nov  3 01:29:06 2010, MaxMem=  786432000 cpu:       0.0
 (Enter /share/apps/G09A02/g09/l301.exe)
 Standard basis: 6-311+G(3df,2p) (5D, 7F)
 Ernie: Thresh=  0.10000D-02 Tol=  0.10000D-05 Strict=F.
 Integral buffers will be    131072 words long.
 Raffenetti 2 integral format.
 Two-electron integral symmetry is turned off.
    84 basis functions,   113 primitive gaussians,    90 cartesian basis functions
     6 alpha electrons        5 beta electrons
       nuclear repulsion energy        14.8084818612 Hartrees.
 IExCor=10402 DFT=T Ex=LC-B+HF Corr=LYP ExCW=0 ScaHFX=  1.000000
 ScaDFX=  1.000000  1.000000  1.000000  1.000000 ScalE2=  1.000000  1.000000
 IRadAn=      0 IRanWt=     -1 IRanGd=            0 ICorTp=0
  HFx wShort=  0.000000 wLong=  0.470000 cFull=  0.000000 cShort=  0.000000 cLong=  1.000000
  DFx wShort=  0.000000 wLong=  0.470000 cFull=  0.000000 cShort=  0.000000 cLong=  1.000000
 NAtoms=    6 NActive=    6 NUniq=    6 SFac= 7.50D-01 NAtFMM=   80 NAOKFM=F Big=F
 Leave Link  301 at Wed Nov  3 01:29:06 2010, MaxMem=  786432000 cpu:       0.7
 (Enter /share/apps/G09A02/g09/l302.exe)
 NPDir=0 NMtPBC=     1 NCelOv=     1 NCel=       1 NClECP=     1 NCelD=      1
         NCelK=      1 NCelE2=     1 NClLst=     1 CellRange=     0.0.
 One-electron integrals computed using PRISM.
 NBasis=    84 RedAO= T  NBF=    84
 NBsUse=    84 1.00D-06 NBFU=    84
 Precomputing XC quadrature grid using
 IXCGrd= 2 IRadAn=           0 IRanWt=          -1 IRanGd=           0 AccXCQ= 1.00D-10.
 NRdTot=     384 NPtTot=       48740 NUsed=       51519 NTot=       51551
 NSgBfM=    90    90    90    90    90 NAtAll=     6     6.
 Leave Link  302 at Wed Nov  3 01:29:07 2010, MaxMem=  786432000 cpu:       2.5
 (Enter /share/apps/G09A02/g09/l303.exe)
 DipDrv:  MaxL=1.
 Leave Link  303 at Wed Nov  3 01:29:07 2010, MaxMem=  786432000 cpu:       0.4
 (Enter /share/apps/G09A02/g09/l401.exe)
 Harris functional with IExCor=10402 diagonalized for initial guess.
 ExpMin= 4.38D-02 ExpMax= 4.56D+03 ExpMxC= 6.82D+02 IAcc=2 IRadAn=         0 AccDes= 0.00D+00
 HarFok:  IExCor=10402 AccDes= 0.00D+00 IRadAn=         0 IDoV= 1
 ScaDFX=  1.000000  1.000000  1.000000  1.000000
 FoFCou: FMM=F IPFlag=           0 FMFlag=      100000 FMFlg1=           0
         NFxFlg=           0 DoJE=T BraDBF=F KetDBF=T FulRan=T
         Omega=  0.000000  0.000000  1.000000  0.000000  0.000000 ICntrl=     500 IOpCl=  0
         NMat0=    1 NMatS0=    1 NMatT0=    0 NMatD0=    1 NMtDS0=    0 NMtDT0=    0
         I1Cent=           4 NGrid=           0.
 Symmetry not used in FoFCou.
 Harris En= -38.5632393819629    
 Initial guess <Sx>= 0.0000 <Sy>= 0.0000 <Sz>= 0.5000 <S**2>= 0.7500 S= 0.5000
 Leave Link  401 at Wed Nov  3 01:29:07 2010, MaxMem=  786432000 cpu:       3.6
 (Enter /share/apps/G09A02/g09/l502.exe)
 UHF open shell SCF:
 Requested convergence on RMS density matrix=1.00D-08 within 128 cycles.
 Requested convergence on MAX density matrix=1.00D-06.
 Requested convergence on             energy=1.00D-06.
 No special actions if energy rises.
 Using DIIS extrapolation, IDIIS=  1040.
 Two-electron integral symmetry not used.
        51452 words used for storage of precomputed grid.
 IEnd=       95170 IEndB=       95170 NGot=   786432000 MDV=   786361661
 LenX=   786361661 LenY=   786353120
 Fock matrices will be formed incrementally for  20 cycles.

 Cycle   1  Pass 1  IDiag  1:
 FoFJK:  IHMeth= 1 ICntrl=     0 DoSepK=T KAlg= 1 I1Cent= 0 FoldK=F
 FoFCou: FMM=F IPFlag=           0 FMFlag=      100000 FMFlg1=           0
         NFxFlg=           0 DoJE=T BraDBF=F KetDBF=F FulRan=T
         Omega=  0.000000  0.000000  1.000000  0.000000  0.000000 ICntrl=     500 IOpCl=  0
         NMat0=    1 NMatS0=    1 NMatT0=    0 NMatD0=    1 NMtDS0=    0 NMtDT0=    0
         I1Cent=           0 NGrid=           0.
 Symmetry not used in FoFCou.
 E= -40.7998131030837    
 DIIS: error= 3.28D-02 at cycle   1 NSaved=   1.
 NSaved= 1 IEnMin= 1 EnMin= -40.7998131030837     IErMin= 1 ErrMin= 3.28D-02
 ErrMax= 3.28D-02 EMaxC= 1.00D-01 BMatC= 2.55D-01 BMatP= 2.55D-01
 IDIUse=3 WtCom= 6.72D-01 WtEn= 3.28D-01
 Coeff-Com:  0.100D+01
 Coeff-En:   0.100D+01
 Coeff:      0.100D+01
 Gap=     0.514 Goal=   None    Shift=    0.000
 Gap=     0.350 Goal=   None    Shift=    0.000
 GapD=    0.350 DampG=1.000 DampE=0.500 DampFc=0.5000 IDamp=-1.
 Damping current iteration by 5.00D-01
 RMSDP=4.46D-03 MaxDP=1.75D-01              OVMax= 1.62D-01

 Cycle   2  Pass 1  IDiag  1:
 RMSU=  1.74D-03    CP:  9.10D-01
 FoFJK:  IHMeth= 1 ICntrl=     0 DoSepK=T KAlg= 1 I1Cent= 0 FoldK=F
 E= -40.8414371130852     Delta-E=       -0.041624010001 Rises=F Damp=T
 DIIS: error= 1.25D-02 at cycle   2 NSaved=   2.
 NSaved= 2 IEnMin= 2 EnMin= -40.8414371130852     IErMin= 2 ErrMin= 1.25D-02
 ErrMax= 1.25D-02 EMaxC= 1.00D-01 BMatC= 2.17D-02 BMatP= 2.55D-01
 IDIUse=3 WtCom= 8.75D-01 WtEn= 1.25D-01
 Coeff-Com: -0.223D+00 0.122D+01
 Coeff-En:   0.000D+00 0.100D+01
 Coeff:     -0.195D+00 0.120D+01
 Gap=     0.568 Goal=   None    Shift=    0.000
 Gap=     0.470 Goal=   None    Shift=    0.000
 RMSDP=2.37D-03 MaxDP=1.16D-01 DE=-4.16D-02 OVMax= 4.47D-02

 Cycle   3  Pass 1  IDiag  1:
 RMSU=  8.78D-04    CP:  8.34D-01  1.98D+00
 FoFJK:  IHMeth= 1 ICntrl=     0 DoSepK=T KAlg= 1 I1Cent= 0 FoldK=F
 E= -40.8826477048515     Delta-E=       -0.041210591766 Rises=F Damp=F
 DIIS: error= 3.50D-03 at cycle   3 NSaved=   3.
 NSaved= 3 IEnMin= 3 EnMin= -40.8826477048515     IErMin= 3 ErrMin= 3.50D-03
 ErrMax= 3.50D-03 EMaxC= 1.00D-01 BMatC= 9.44D-04 BMatP= 2.17D-02
 IDIUse=3 WtCom= 9.65D-01 WtEn= 3.50D-02
 Coeff-Com:  0.433D-01-0.291D+00 0.125D+01
 Coeff-En:   0.000D+00 0.000D+00 0.100D+01
 Coeff:      0.417D-01-0.281D+00 0.124D+01
 Gap=     0.515 Goal=   None    Shift=    0.000
 Gap=     0.502 Goal=   None    Shift=    0.000
 RMSDP=5.87D-04 MaxDP=3.03D-02 DE=-4.12D-02 OVMax= 3.66D-02

 Cycle   4  Pass 1  IDiag  1:
 RMSU=  2.72D-04    CP:  8.18D-01  2.16D+00  1.30D+00
 FoFJK:  IHMeth= 1 ICntrl=     0 DoSepK=T KAlg= 1 I1Cent= 0 FoldK=F
 E= -40.8835677235472     Delta-E=       -0.000920018696 Rises=F Damp=F
 DIIS: error= 4.71D-04 at cycle   4 NSaved=   4.
 NSaved= 4 IEnMin= 4 EnMin= -40.8835677235472     IErMin= 4 ErrMin= 4.71D-04
 ErrMax= 4.71D-04 EMaxC= 1.00D-01 BMatC= 2.24D-05 BMatP= 9.44D-04
 IDIUse=3 WtCom= 9.95D-01 WtEn= 4.71D-03
 Coeff-Com: -0.405D-02-0.305D-02-0.107D+00 0.111D+01
 Coeff-En:   0.000D+00 0.000D+00 0.000D+00 0.100D+01
 Coeff:     -0.403D-02-0.304D-02-0.106D+00 0.111D+01
 Gap=     0.513 Goal=   None    Shift=    0.000
 Gap=     0.502 Goal=   None    Shift=    0.000
 RMSDP=9.03D-05 MaxDP=4.93D-03 DE=-9.20D-04 OVMax= 5.83D-03

 Cycle   5  Pass 1  IDiag  1:
 RMSU=  3.82D-05    CP:  8.16D-01  2.18D+00  1.34D+00  1.21D+00
 FoFJK:  IHMeth= 1 ICntrl=     0 DoSepK=T KAlg= 1 I1Cent= 0 FoldK=F
 E= -40.8835876822029     Delta-E=       -0.000019958656 Rises=F Damp=F
 DIIS: error= 6.21D-05 at cycle   5 NSaved=   5.
 NSaved= 5 IEnMin= 5 EnMin= -40.8835876822029     IErMin= 5 ErrMin= 6.21D-05
 ErrMax= 6.21D-05 EMaxC= 1.00D-01 BMatC= 2.46D-07 BMatP= 2.24D-05
 IDIUse=1 WtCom= 1.00D+00 WtEn= 0.00D+00
 Coeff-Com:  0.617D-03 0.301D-02 0.124D-01-0.246D+00 0.123D+01
 Coeff:      0.617D-03 0.301D-02 0.124D-01-0.246D+00 0.123D+01
 Gap=     0.513 Goal=   None    Shift=    0.000
 Gap=     0.502 Goal=   None    Shift=    0.000
 RMSDP=1.84D-05 MaxDP=7.57D-04 DE=-2.00D-05 OVMax= 4.89D-04

 Cycle   6  Pass 1  IDiag  1:
 RMSU=  2.00D-06    CP:  8.17D-01  2.18D+00  1.33D+00  1.23D+00  1.43D+00
 FoFJK:  IHMeth= 1 ICntrl=     0 DoSepK=T KAlg= 1 I1Cent= 0 FoldK=F
 E= -40.8835879003796     Delta-E=       -0.000000218177 Rises=F Damp=F
 DIIS: error= 1.08D-05 at cycle   6 NSaved=   6.
 NSaved= 6 IEnMin= 6 EnMin= -40.8835879003796     IErMin= 6 ErrMin= 1.08D-05
 ErrMax= 1.08D-05 EMaxC= 1.00D-01 BMatC= 1.08D-08 BMatP= 2.46D-07
 IDIUse=1 WtCom= 1.00D+00 WtEn= 0.00D+00
 Coeff-Com: -0.863D-05-0.631D-03-0.908D-03 0.351D-01-0.283D+00 0.125D+01
 Coeff:     -0.863D-05-0.631D-03-0.908D-03 0.351D-01-0.283D+00 0.125D+01
 Gap=     0.513 Goal=   None    Shift=    0.000
 Gap=     0.502 Goal=   None    Shift=    0.000
 RMSDP=3.22D-06 MaxDP=1.27D-04 DE=-2.18D-07 OVMax= 8.55D-05

 Cycle   7  Pass 1  IDiag  1:
 RMSU=  4.35D-07    CP:  8.17D-01  2.18D+00  1.33D+00  1.24D+00  1.50D+00
                    CP:  1.43D+00
 FoFJK:  IHMeth= 1 ICntrl=     0 DoSepK=T KAlg= 1 I1Cent= 0 FoldK=F
 E= -40.8835879103017     Delta-E=       -0.000000009922 Rises=F Damp=F
 DIIS: error= 3.83D-06 at cycle   7 NSaved=   7.
 NSaved= 7 IEnMin= 7 EnMin= -40.8835879103017     IErMin= 7 ErrMin= 3.83D-06
 ErrMax= 3.83D-06 EMaxC= 1.00D-01 BMatC= 9.37D-10 BMatP= 1.08D-08
 IDIUse=1 WtCom= 1.00D+00 WtEn= 0.00D+00
 Coeff-Com: -0.432D-04-0.135D-03-0.723D-03 0.126D-01-0.544D-01-0.974D-01
 Coeff-Com:  0.114D+01
 Coeff:     -0.432D-04-0.135D-03-0.723D-03 0.126D-01-0.544D-01-0.974D-01
 Coeff:      0.114D+01
 Gap=     0.513 Goal=   None    Shift=    0.000
 Gap=     0.502 Goal=   None    Shift=    0.000
 RMSDP=4.87D-07 MaxDP=1.48D-05 DE=-9.92D-09 OVMax= 2.01D-05

 Cycle   8  Pass 1  IDiag  1:
 RMSU=  9.49D-08    CP:  8.17D-01  2.18D+00  1.33D+00  1.24D+00  1.51D+00
                    CP:  1.54D+00  1.37D+00
 FoFJK:  IHMeth= 1 ICntrl=     0 DoSepK=T KAlg= 1 I1Cent= 0 FoldK=F
 E= -40.8835879110824     Delta-E=       -0.000000000781 Rises=F Damp=F
 DIIS: error= 1.47D-06 at cycle   8 NSaved=   8.
 NSaved= 8 IEnMin= 8 EnMin= -40.8835879110824     IErMin= 8 ErrMin= 1.47D-06
 ErrMax= 1.47D-06 EMaxC= 1.00D-01 BMatC= 1.31D-10 BMatP= 9.37D-10
 IDIUse=1 WtCom= 1.00D+00 WtEn= 0.00D+00
 Coeff-Com:  0.169D-04 0.124D-03 0.449D-03-0.940D-02 0.532D-01-0.835D-01
 Coeff-Com: -0.467D+00 0.151D+01
 Coeff:      0.169D-04 0.124D-03 0.449D-03-0.940D-02 0.532D-01-0.835D-01
 Coeff:     -0.467D+00 0.151D+01
 Gap=     0.513 Goal=   None    Shift=    0.000
 Gap=     0.502 Goal=   None    Shift=    0.000
 RMSDP=1.53D-07 MaxDP=2.98D-06 DE=-7.81D-10 OVMax= 9.72D-06

 Cycle   9  Pass 1  IDiag  1:
 RMSU=  3.03D-08    CP:  8.17D-01  2.18D+00  1.33D+00  1.24D+00  1.51D+00
                    CP:  1.56D+00  1.52D+00  1.85D+00
 FoFJK:  IHMeth= 1 ICntrl=     0 DoSepK=T KAlg= 1 I1Cent= 0 FoldK=F
 E= -40.8835879111998     Delta-E=       -0.000000000117 Rises=F Damp=F
 DIIS: error= 3.55D-07 at cycle   9 NSaved=   9.
 NSaved= 9 IEnMin= 9 EnMin= -40.8835879111998     IErMin= 9 ErrMin= 3.55D-07
 ErrMax= 3.55D-07 EMaxC= 1.00D-01 BMatC= 6.58D-12 BMatP= 1.31D-10
 IDIUse=1 WtCom= 1.00D+00 WtEn= 0.00D+00
 Coeff-Com: -0.312D-07-0.243D-04-0.727D-04 0.169D-02-0.105D-01 0.326D-01
 Coeff-Com:  0.378D-01-0.417D+00 0.136D+01
 Coeff:     -0.312D-07-0.243D-04-0.727D-04 0.169D-02-0.105D-01 0.326D-01
 Coeff:      0.378D-01-0.417D+00 0.136D+01
 Gap=     0.513 Goal=   None    Shift=    0.000
 Gap=     0.502 Goal=   None    Shift=    0.000
 RMSDP=4.23D-08 MaxDP=1.05D-06 DE=-1.17D-10 OVMax= 2.09D-06

 Cycle  10  Pass 1  IDiag  1:
 RMSU=  9.50D-09    CP:  8.17D-01  2.18D+00  1.33D+00  1.24D+00  1.51D+00
                    CP:  1.56D+00  1.53D+00  2.08D+00  1.43D+00
 FoFJK:  IHMeth= 1 ICntrl=     0 DoSepK=T KAlg= 1 I1Cent= 0 FoldK=F
 E= -40.8835879112068     Delta-E=       -0.000000000007 Rises=F Damp=F
 DIIS: error= 6.11D-08 at cycle  10 NSaved=  10.
 NSaved=10 IEnMin=10 EnMin= -40.8835879112068     IErMin=10 ErrMin= 6.11D-08
 ErrMax= 6.11D-08 EMaxC= 1.00D-01 BMatC= 2.74D-13 BMatP= 6.58D-12
 IDIUse=1 WtCom= 1.00D+00 WtEn= 0.00D+00
 Coeff-Com: -0.593D-06 0.937D-05 0.202D-04-0.582D-03 0.381D-02-0.148D-01
 Coeff-Com: -0.236D-02 0.165D+00-0.695D+00 0.154D+01
 Coeff:     -0.593D-06 0.937D-05 0.202D-04-0.582D-03 0.381D-02-0.148D-01
 Coeff:     -0.236D-02 0.165D+00-0.695D+00 0.154D+01
 Gap=     0.513 Goal=   None    Shift=    0.000
 Gap=     0.502 Goal=   None    Shift=    0.000
 RMSDP=7.28D-09 MaxDP=1.28D-07 DE=-6.96D-12 OVMax= 3.41D-07

 SCF Done:  E(ULC-B+HF-LYP) =  -40.8835879112     A.U. after   10 cycles
             Convg  =    0.7279D-08             -V/T =  2.0051
 <Sx>= 0.0000 <Sy>= 0.0000 <Sz>= 0.5000 <S**2>= 0.7500 S= 0.5000
 <L.S>= 0.000000000000E+00
 KE= 4.067580232673D+01 PE=-1.237696633590D+02 EE= 2.740179125985D+01
 Annihilation of the first spin contaminant:
 S**2 before annihilation     0.7500,   after     0.7500
 Leave Link  502 at Wed Nov  3 01:29:36 2010, MaxMem=  786432000 cpu:     233.4
 (Enter /share/apps/G09A02/g09/l601.exe)
 Copying SCF densities to generalized density rwf, IOpCl= 1 IROHF=0.

 **********************************************************************

            Population analysis using the SCF density.

 **********************************************************************

 Alpha  occ. eigenvalues --  -10.11330  -0.85949  -0.52666  -0.52524  -0.52524
 Alpha  occ. eigenvalues --   -0.44996
 Alpha virt. eigenvalues --    0.06301   0.09649   0.09649   0.10723   0.22673
 Alpha virt. eigenvalues --    0.22673   0.23000   0.27279   0.36429   0.36829
 Alpha virt. eigenvalues --    0.36829   0.41860   0.41860   0.42956   0.62838
 Alpha virt. eigenvalues --    0.64701   0.64701   0.68995   0.68995   0.72070
 Alpha virt. eigenvalues --    0.74270   0.80003   0.80283   0.80283   0.94615
 Alpha virt. eigenvalues --    0.99181   0.99195   0.99196   1.10251   1.10251
 Alpha virt. eigenvalues --    1.25213   1.25213   1.26868   1.40979   1.40979
 Alpha virt. eigenvalues --    1.43617   1.69091   2.06618   2.06618   2.07843
 Alpha virt. eigenvalues --    2.07844   2.08333   2.34113   2.51565   2.78775
 Alpha virt. eigenvalues --    2.78775   2.80337   3.09002   3.09002   3.09015
 Alpha virt. eigenvalues --    3.43928   3.43928   3.45124   3.65195   3.65195
 Alpha virt. eigenvalues --    3.65264   3.80236   3.80236   3.89323   4.07937
 Alpha virt. eigenvalues --    4.31082   4.31082   4.32357   4.35661   4.35661
 Alpha virt. eigenvalues --    4.58743   4.58743   4.58749   5.01162   5.89379
 Alpha virt. eigenvalues --    5.89379   5.89405   7.30308   7.30308   7.91479
 Alpha virt. eigenvalues --    7.91479   7.92206  24.29273
  Beta  occ. eigenvalues --  -10.11322  -0.85923  -0.52519  -0.52519  -0.52517
  Beta virt. eigenvalues --   -0.02327   0.06584   0.09557   0.09557   0.11136
  Beta virt. eigenvalues --    0.22660   0.22660   0.23339   0.27260   0.36818
  Beta virt. eigenvalues --    0.36818   0.39746   0.41842   0.41843   0.46157
  Beta virt. eigenvalues --    0.63911   0.64733   0.64733   0.72092   0.73181
  Beta virt. eigenvalues --    0.73181   0.75017   0.80041   0.80284   0.80284
  Beta virt. eigenvalues --    0.96310   0.99182   0.99189   0.99189   1.10247
  Beta virt. eigenvalues --    1.10247   1.25209   1.25209   1.26921   1.40980
  Beta virt. eigenvalues --    1.40980   1.43545   1.69087   2.06627   2.06627
  Beta virt. eigenvalues --    2.07856   2.07856   2.08326   2.51448   2.55213
  Beta virt. eigenvalues --    2.78783   2.78783   2.80367   3.09018   3.09020
  Beta virt. eigenvalues --    3.09020   3.43937   3.43937   3.45117   3.65235
  Beta virt. eigenvalues --    3.65235   3.65326   3.95777   3.95777   4.04301
  Beta virt. eigenvalues --    4.08041   4.31084   4.31084   4.32590   4.35661
  Beta virt. eigenvalues --    4.35661   4.58748   4.58748   4.58752   5.01168
  Beta virt. eigenvalues --    5.89384   5.89384   5.89420   7.30333   7.30333
  Beta virt. eigenvalues --    7.91494   7.91494   7.92240  24.29284
          Condensed to atoms (all electrons):
              1          2          3          4          5          6
     1  C    5.063001   0.396827   0.401452   0.401452   0.401452   0.002625
     2  H    0.396827   0.491479  -0.017508  -0.017508  -0.017508  -0.000882
     3  H    0.401452  -0.017508   0.483962  -0.017127  -0.017127  -0.000058
     4  H    0.401452  -0.017508  -0.017127   0.483961  -0.017127  -0.000058
     5  H    0.401452  -0.017508  -0.017127  -0.017127   0.483961  -0.000058
     6  H    0.002625  -0.000882  -0.000058  -0.000058  -0.000058   0.995948
 Mulliken atomic charges:
              1
     1  C   -0.666807
     2  H    0.165099
     3  H    0.166408
     4  H    0.166408
     5  H    0.166408
     6  H    0.002485
 Sum of Mulliken atomic charges =   0.00000
 Mulliken charges with hydrogens summed into heavy atoms:
              1
     1  C    0.000000
 Sum of Mulliken charges with hydrogens summed into heavy atoms =   0.00000
          Atomic-Atomic Spin Densities.
              1          2          3          4          5          6
     1  C    0.012629   0.000527  -0.000316  -0.000316  -0.000316   0.002187
     2  H    0.000527  -0.011519   0.000762   0.000762   0.000762  -0.001646
     3  H   -0.000316   0.000762  -0.000149  -0.000164  -0.000164  -0.000045
     4  H   -0.000316   0.000762  -0.000164  -0.000149  -0.000164  -0.000045
     5  H   -0.000316   0.000762  -0.000164  -0.000164  -0.000149  -0.000045
     6  H    0.002187  -0.001646  -0.000045  -0.000045  -0.000045   0.995783
 Mulliken atomic spin densities:
              1
     1  C    0.014393
     2  H   -0.010352
     3  H   -0.000077
     4  H   -0.000077
     5  H   -0.000077
     6  H    0.996190
 Sum of Mulliken atomic spin densities =   1.00000
 Electronic spatial extent (au):  <R**2>=             93.3887
 Charge=              0.0000 electrons
 Dipole moment (field-independent basis, Debye):
    X=              0.0000    Y=              0.0000    Z=              0.0107  Tot=              0.0107
 Quadrupole moment (field-independent basis, Debye-Ang):
   XX=             -9.9510   YY=             -9.9510   ZZ=             -9.8511
   XY=              0.0000   XZ=              0.0000   YZ=              0.0000
 Traceless Quadrupole moment (field-independent basis, Debye-Ang):
   XX=             -0.0333   YY=             -0.0333   ZZ=              0.0666
   XY=              0.0000   XZ=              0.0000   YZ=              0.0000
 Octapole moment (field-independent basis, Debye-Ang**2):
  XXX=              0.6628  YYY=              0.0000  ZZZ=            -15.2168  XYY=             -0.6628
  XXY=              0.0000  XXZ=             -6.0497  XZZ=              0.0000  YZZ=              0.0000
  YYZ=             -6.0497  XYZ=              0.0000
 Hexadecapole moment (field-independent basis, Debye-Ang**3):
 XXXX=            -18.4952 YYYY=            -18.4951 ZZZZ=           -145.5225 XXXY=              0.0000
 XXXZ=             -0.4216 YYYX=              0.0000 YYYZ=              0.0000 ZZZX=              0.0000
 ZZZY=              0.0000 XXYY=             -6.1650 XXZZ=            -28.1861 YYZZ=            -28.1861
 XXYZ=              0.0000 YYXZ=              0.4216 ZZXY=              0.0000
 N-N= 1.480848186122D+01 E-N=-1.844693936059D+02  KE= 6.076756445996D+01
                          Isotropic Fermi Contact Couplings
        Atom                 a.u.       MegaHertz       Gauss      10(-4) cm-1
     1  C(13)              0.00173       1.94978       0.69573       0.65038
     2  H(1)               0.00026       1.15318       0.41148       0.38466
     3  H(1)              -0.00002      -0.07221      -0.02577      -0.02409
     4  H(1)              -0.00002      -0.07221      -0.02577      -0.02409
     5  H(1)              -0.00002      -0.07221      -0.02577      -0.02409
     6  H(1)               0.28622    1279.36660     456.50980     426.75076
 --------------------------------------------------------
       Center         ----  Spin Dipole Couplings  ----
                      3XX-RR        3YY-RR        3ZZ-RR
 --------------------------------------------------------
     1   Atom       -0.005603     -0.005603      0.011206
     2   Atom       -0.007459     -0.007459      0.014918
     3   Atom       -0.001133     -0.002045      0.003179
     4   Atom       -0.001817     -0.001361      0.003179
     5   Atom       -0.001817     -0.001361      0.003179
     6   Atom        0.000044      0.000044     -0.000088
 --------------------------------------------------------
                        XY            XZ            YZ
 --------------------------------------------------------
     1   Atom        0.000000      0.000000      0.000000
     2   Atom        0.000000      0.000000      0.000000
     3   Atom        0.000000     -0.001351      0.000000
     4   Atom        0.000395      0.000675      0.001170
     5   Atom       -0.000395      0.000675     -0.001170
     6   Atom        0.000000      0.000000      0.000000
 --------------------------------------------------------


 ---------------------------------------------------------------------------------
              Anisotropic Spin Dipole Couplings in Principal Axis System
 ---------------------------------------------------------------------------------

       Atom             a.u.   MegaHertz   Gauss  10(-4) cm-1        Axes

              Baa    -0.0056    -0.752    -0.268    -0.251  0.0000  1.0000  0.0000
     1 C(13)  Bbb    -0.0056    -0.752    -0.268    -0.251  1.0000  0.0000  0.0000
              Bcc     0.0112     1.504     0.537     0.502  0.0000  0.0000  1.0000
 
              Baa    -0.0075    -3.980    -1.420    -1.328  0.0000  1.0000  0.0000
     2 H(1)   Bbb    -0.0075    -3.980    -1.420    -1.328  1.0000  0.0000  0.0000
              Bcc     0.0149     7.960     2.840     2.655  0.0000  0.0000  1.0000
 
              Baa    -0.0020    -1.091    -0.389    -0.364  0.0000  1.0000  0.0000
     3 H(1)   Bbb    -0.0015    -0.812    -0.290    -0.271  0.9611  0.0000  0.2762
              Bcc     0.0036     1.903     0.679     0.635 -0.2762  0.0000  0.9611
 
              Baa    -0.0020    -1.091    -0.389    -0.364  0.8660 -0.5000  0.0000
     4 H(1)   Bbb    -0.0015    -0.812    -0.290    -0.271  0.4806  0.8323 -0.2762
              Bcc     0.0036     1.903     0.679     0.635  0.1381  0.2392  0.9611
 
              Baa    -0.0020    -1.091    -0.389    -0.364  0.8660  0.5000  0.0000
     5 H(1)   Bbb    -0.0015    -0.812    -0.290    -0.271 -0.4806  0.8323  0.2762
              Bcc     0.0036     1.903     0.679     0.635  0.1381 -0.2392  0.9611
 
              Baa    -0.0001    -0.047    -0.017    -0.016  0.0000  0.0000  1.0000
     6 H(1)   Bbb     0.0000     0.024     0.008     0.008  1.0000  0.0000  0.0000
              Bcc     0.0000     0.024     0.008     0.008  0.0000  1.0000  0.0000
 

 ---------------------------------------------------------------------------------

 No NMR shielding tensors so no spin-rotation constants.
 Leave Link  601 at Wed Nov  3 01:29:37 2010, MaxMem=  786432000 cpu:       4.2
 (Enter /share/apps/G09A02/g09/l9999.exe)
 1\1\GINC-COMPUTE-0-7\SP\ULC-BLYP\6-311+G(3df,2p)\C1H5(2)\WENXINZY\03-N
 ov-2010\0\\#p lc-blyp/6-311+g(3df,2p) nosymm scf=tight\\39 H_CH4\\0,2\
 C\H,1,1.0892717\H,1,1.0893016,2,109.4689438\H,1,1.0893016,2,109.468943
 8,3,120.,0\H,1,1.0893016,2,109.4689438,3,-120.,0\H,2,2.8108342,1,180.,
 3,0.,0\\Version=EM64L-G09RevA.02\HF=-40.8835879\S2=0.750033\S2-1=0.\S2
 A=0.75\RMSD=7.279e-09\Dipole=0.0000003,0.,0.004219\Quadrupole=-0.02475
 27,-0.0247502,0.0495029,0.,-0.0000006,0.\PG=C03V [C3(H1H1C1),3SGV(H1)]
 \\@


 IF YOU GIVE EVERYONE A PIECE OF YOUR MIND,
 PRETTY SOON IT WILL BE ALL GONE.
 Job cpu time:  0 days  0 hours  4 minutes  7.8 seconds.
 File lengths (MBytes):  RWF=      9 Int=      0 D2E=      0 Chk=      1 Scr=      1
 Normal termination of Gaussian 09 at Wed Nov  3 01:29:37 2010.
