 Entering Gaussian System, Link 0=/share/apps/G09A02/g09/g09
 Input=./.script12553/Job_H2_CH3_25.com
 Output=./.script12553/Job_H2_CH3_25.log
 Initial command:
 /share/apps/G09A02/g09/l1.exe /state/partition1/wenxinzy/scratch/Gau-20108.inp -scrdir=/state/partition1/wenxinzy/scratch/
 Default is to use a total of   8 processors:
                                8 via shared-memory
                                1 via Linda
 Entering Link 1 = /share/apps/G09A02/g09/l1.exe PID=     20109.
  
 Copyright (c) 1988,1990,1992,1993,1995,1998,2003,2009, Gaussian, Inc.
                  All Rights Reserved.
  
 This is part of the Gaussian(R) 09 program.  It is based on
 the Gaussian(R) 03 system (copyright 2003, Gaussian, Inc.),
 the Gaussian(R) 98 system (copyright 1998, Gaussian, Inc.),
 the Gaussian(R) 94 system (copyright 1995, Gaussian, Inc.),
 the Gaussian 92(TM) system (copyright 1992, Gaussian, Inc.),
 the Gaussian 90(TM) system (copyright 1990, Gaussian, Inc.),
 the Gaussian 88(TM) system (copyright 1988, Gaussian, Inc.),
 the Gaussian 86(TM) system (copyright 1986, Carnegie Mellon
 University), and the Gaussian 82(TM) system (copyright 1983,
 Carnegie Mellon University). Gaussian is a federally registered
 trademark of Gaussian, Inc.
  
 This software contains proprietary and confidential information,
 including trade secrets, belonging to Gaussian, Inc.
  
 This software is provided under written license and may be
 used, copied, transmitted, or stored only in accord with that
 written license.
  
 The following legend is applicable only to US Government
 contracts under FAR:
  
                    RESTRICTED RIGHTS LEGEND
  
 Use, reproduction and disclosure by the US Government is
 subject to restrictions as set forth in subparagraphs (a)
 and (c) of the Commercial Computer Software - Restricted
 Rights clause in FAR 52.227-19.
  
 Gaussian, Inc.
 340 Quinnipiac St., Bldg. 40, Wallingford CT 06492
  
  
 ---------------------------------------------------------------
 Warning -- This program may not be used in any manner that
 competes with the business of Gaussian, Inc. or will provide
 assistance to any competitor of Gaussian, Inc.  The licensee
 of this program is prohibited from giving any competitor of
 Gaussian, Inc. access to this program.  By using this program,
 the user acknowledges that Gaussian, Inc. is engaged in the
 business of creating and licensing software in the field of
 computational chemistry and represents and warrants to the
 licensee that it is not a competitor of Gaussian, Inc. and that
 it will not use this program in any manner prohibited above.
 ---------------------------------------------------------------
  

 Cite this work as:
 Gaussian 09, Revision A.02,
 M. J. Frisch, G. W. Trucks, H. B. Schlegel, G. E. Scuseria, 
 M. A. Robb, J. R. Cheeseman, G. Scalmani, V. Barone, B. Mennucci, 
 G. A. Petersson, H. Nakatsuji, M. Caricato, X. Li, H. P. Hratchian, 
 A. F. Izmaylov, J. Bloino, G. Zheng, J. L. Sonnenberg, M. Hada, 
 M. Ehara, K. Toyota, R. Fukuda, J. Hasegawa, M. Ishida, T. Nakajima, 
 Y. Honda, O. Kitao, H. Nakai, T. Vreven, J. A. Montgomery, Jr., 
 J. E. Peralta, F. Ogliaro, M. Bearpark, J. J. Heyd, E. Brothers, 
 K. N. Kudin, V. N. Staroverov, R. Kobayashi, J. Normand, 
 K. Raghavachari, A. Rendell, J. C. Burant, S. S. Iyengar, J. Tomasi, 
 M. Cossi, N. Rega, J. M. Millam, M. Klene, J. E. Knox, J. B. Cross, 
 V. Bakken, C. Adamo, J. Jaramillo, R. Gomperts, R. E. Stratmann, 
 O. Yazyev, A. J. Austin, R. Cammi, C. Pomelli, J. W. Ochterski, 
 R. L. Martin, K. Morokuma, V. G. Zakrzewski, G. A. Voth, 
 P. Salvador, J. J. Dannenberg, S. Dapprich, A. D. Daniels, 
 O. Farkas, J. B. Foresman, J. V. Ortiz, J. Cioslowski, 
 and D. J. Fox, Gaussian, Inc., Wallingford CT, 2009.
 
 ******************************************
 Gaussian 09:  EM64L-G09RevA.02 11-Jun-2009
                 3-Nov-2010 
 ******************************************
 %chk=/state/partition1/wenxinzy/scratch/H2_CH3_25.chk
 %nproc=8
 Will use up to    8 processors via shared memory.
 %mem=6000mb
 -------------------------------------------
 #p lc-blyp/6-311+g(3df,2p) nosymm scf=tight
 -------------------------------------------
 1/38=1/1;
 2/12=2,15=1,17=6,18=5,40=1/2;
 3/5=4,6=6,7=216,11=2,16=1,25=1,30=1,74=1000402/1,2,3;
 4//1;
 5/5=2,32=2,38=5/2;
 6/7=2,8=2,9=2,10=2,28=1/1;
 99/5=1,9=1/99;
 Leave Link    1 at Wed Nov  3 01:50:11 2010, MaxMem=  786432000 cpu:       0.4
 (Enter /share/apps/G09A02/g09/l101.exe)
 ---------
 26 H2+CH3
 ---------
 Symbolic Z-matrix:
 Charge =  0 Multiplicity = 2
 C
 H1                   C    R1
 H2                   C    R2       H1   A1
 H3                   C    R2       H1   A1       H2    120.     0
 H4                   C    R2       H1   A1       H2   -120.     0
 H5                   H1   R3       C     180.     H2    0.       0
       Variables:
  R1                    2.76869                  
  R2                    1.07926                  
  A1                   90.24562                  
  R3                    0.74409                  
 
 NAtoms=      6 NQM=      6 NQMF=      0 NMic=      0 NMicF=      0 NTot=      6.
                    Isotopes and Nuclear Properties:
 (Nuclear quadrupole moments (NQMom) in fm**2, nuclear magnetic moments (NMagM)
  in nuclear magnetons)

  Atom         1           2           3           4           5           6
 IAtWgt=          12           1           1           1           1           1
 AtmWgt=  12.0000000   1.0078250   1.0078250   1.0078250   1.0078250   1.0078250
 NucSpn=           0           1           1           1           1           1
 AtZEff=   0.0000000   0.0000000   0.0000000   0.0000000   0.0000000   0.0000000
 NQMom=    0.0000000   0.0000000   0.0000000   0.0000000   0.0000000   0.0000000
 NMagM=    0.0000000   2.7928460   2.7928460   2.7928460   2.7928460   2.7928460
 Leave Link  101 at Wed Nov  3 01:50:11 2010, MaxMem=  786432000 cpu:       1.0
 (Enter /share/apps/G09A02/g09/l202.exe)
                          Input orientation:                          
 ---------------------------------------------------------------------
 Center     Atomic      Atomic             Coordinates (Angstroms)
 Number     Number       Type             X           Y           Z
 ---------------------------------------------------------------------
      1          6           0        0.000000    0.000000    0.000000
      2          1           0        0.000000    0.000000    2.768693
      3          1           0        1.079250    0.000000   -0.004627
      4          1           0       -0.539625   -0.934658   -0.004627
      5          1           0       -0.539625    0.934658   -0.004627
      6          1           0        0.000000    0.000000    3.512784
 ---------------------------------------------------------------------
                    Distance matrix (angstroms):
                    1          2          3          4          5
     1  C    0.000000
     2  H    2.768693   0.000000
     3  H    1.079260   2.975917   0.000000
     4  H    1.079260   2.975917   1.869316   0.000000
     5  H    1.079260   2.975917   1.869316   1.869316   0.000000
     6  H    3.512784   0.744090   3.679260   3.679260   3.679260
                    6
     6  H    0.000000
 Symmetry turned off by external request.
 Stoichiometry    CH5(2)
 Framework group  C3V[C3(HHC),3SGV(H)]
 Deg. of freedom     4
 Full point group                 C3V     NOp   6
 Rotational constants (GHZ):    143.5048092     25.8095386     25.8095386
 Leave Link  202 at Wed Nov  3 01:50:11 2010, MaxMem=  786432000 cpu:       0.1
 (Enter /share/apps/G09A02/g09/l301.exe)
 Standard basis: 6-311+G(3df,2p) (5D, 7F)
 Ernie: Thresh=  0.10000D-02 Tol=  0.10000D-05 Strict=F.
 Integral buffers will be    131072 words long.
 Raffenetti 2 integral format.
 Two-electron integral symmetry is turned off.
    84 basis functions,   113 primitive gaussians,    90 cartesian basis functions
     6 alpha electrons        5 beta electrons
       nuclear repulsion energy        13.4016706931 Hartrees.
 IExCor=10402 DFT=T Ex=LC-B+HF Corr=LYP ExCW=0 ScaHFX=  1.000000
 ScaDFX=  1.000000  1.000000  1.000000  1.000000 ScalE2=  1.000000  1.000000
 IRadAn=      0 IRanWt=     -1 IRanGd=            0 ICorTp=0
  HFx wShort=  0.000000 wLong=  0.470000 cFull=  0.000000 cShort=  0.000000 cLong=  1.000000
  DFx wShort=  0.000000 wLong=  0.470000 cFull=  0.000000 cShort=  0.000000 cLong=  1.000000
 NAtoms=    6 NActive=    6 NUniq=    6 SFac= 7.50D-01 NAtFMM=   80 NAOKFM=F Big=F
 Leave Link  301 at Wed Nov  3 01:50:11 2010, MaxMem=  786432000 cpu:       0.6
 (Enter /share/apps/G09A02/g09/l302.exe)
 NPDir=0 NMtPBC=     1 NCelOv=     1 NCel=       1 NClECP=     1 NCelD=      1
         NCelK=      1 NCelE2=     1 NClLst=     1 CellRange=     0.0.
 One-electron integrals computed using PRISM.
 NBasis=    84 RedAO= T  NBF=    84
 NBsUse=    84 1.00D-06 NBFU=    84
 Precomputing XC quadrature grid using
 IXCGrd= 2 IRadAn=           0 IRanWt=          -1 IRanGd=           0 AccXCQ= 1.00D-10.
 NRdTot=     384 NPtTot=       48302 NUsed=       51081 NTot=       51113
 NSgBfM=    90    90    90    90    90 NAtAll=     6     6.
 Leave Link  302 at Wed Nov  3 01:50:11 2010, MaxMem=  786432000 cpu:       2.5
 (Enter /share/apps/G09A02/g09/l303.exe)
 DipDrv:  MaxL=1.
 Leave Link  303 at Wed Nov  3 01:50:11 2010, MaxMem=  786432000 cpu:       0.5
 (Enter /share/apps/G09A02/g09/l401.exe)
 Harris functional with IExCor=10402 diagonalized for initial guess.
 ExpMin= 4.38D-02 ExpMax= 4.56D+03 ExpMxC= 6.82D+02 IAcc=2 IRadAn=         0 AccDes= 0.00D+00
 HarFok:  IExCor=10402 AccDes= 0.00D+00 IRadAn=         0 IDoV= 1
 ScaDFX=  1.000000  1.000000  1.000000  1.000000
 FoFCou: FMM=F IPFlag=           0 FMFlag=      100000 FMFlg1=           0
         NFxFlg=           0 DoJE=T BraDBF=F KetDBF=T FulRan=T
         Omega=  0.000000  0.000000  1.000000  0.000000  0.000000 ICntrl=     500 IOpCl=  0
         NMat0=    1 NMatS0=    1 NMatT0=    0 NMatD0=    1 NMtDS0=    0 NMtDT0=    0
         I1Cent=           4 NGrid=           0.
 Symmetry not used in FoFCou.
 Harris En= -38.5358706179996    
 Initial guess <Sx>= 0.0000 <Sy>= 0.0000 <Sz>= 0.5000 <S**2>= 0.7500 S= 0.5000
 Leave Link  401 at Wed Nov  3 01:50:12 2010, MaxMem=  786432000 cpu:       3.6
 (Enter /share/apps/G09A02/g09/l502.exe)
 UHF open shell SCF:
 Requested convergence on RMS density matrix=1.00D-08 within 128 cycles.
 Requested convergence on MAX density matrix=1.00D-06.
 Requested convergence on             energy=1.00D-06.
 No special actions if energy rises.
 Using DIIS extrapolation, IDIIS=  1040.
 Two-electron integral symmetry not used.
        51014 words used for storage of precomputed grid.
 IEnd=       94732 IEndB=       94732 NGot=   786432000 MDV=   786362099
 LenX=   786362099 LenY=   786353558
 Fock matrices will be formed incrementally for  20 cycles.

 Cycle   1  Pass 1  IDiag  1:
 FoFJK:  IHMeth= 1 ICntrl=     0 DoSepK=T KAlg= 1 I1Cent= 0 FoldK=F
 FoFCou: FMM=F IPFlag=           0 FMFlag=      100000 FMFlg1=           0
         NFxFlg=           0 DoJE=T BraDBF=F KetDBF=F FulRan=T
         Omega=  0.000000  0.000000  1.000000  0.000000  0.000000 ICntrl=     500 IOpCl=  0
         NMat0=    1 NMatS0=    1 NMatT0=    0 NMatD0=    1 NMtDS0=    0 NMtDT0=    0
         I1Cent=           0 NGrid=           0.
 Symmetry not used in FoFCou.
 E= -40.8561196863995    
 DIIS: error= 2.06D-02 at cycle   1 NSaved=   1.
 NSaved= 1 IEnMin= 1 EnMin= -40.8561196863995     IErMin= 1 ErrMin= 2.06D-02
 ErrMax= 2.06D-02 EMaxC= 1.00D-01 BMatC= 6.11D-02 BMatP= 6.11D-02
 IDIUse=3 WtCom= 7.94D-01 WtEn= 2.06D-01
 Coeff-Com:  0.100D+01
 Coeff-En:   0.100D+01
 Coeff:      0.100D+01
 Gap=     0.390 Goal=   None    Shift=    0.000
 Gap=     0.620 Goal=   None    Shift=    0.000
 GapD=    0.390 DampG=1.000 DampE=0.500 DampFc=0.5000 IDamp=-1.
 Damping current iteration by 5.00D-01
 RMSDP=1.49D-03 MaxDP=6.48D-02              OVMax= 5.29D-02

 Cycle   2  Pass 1  IDiag  1:
 RMSU=  5.49D-04    CP:  9.82D-01
 FoFJK:  IHMeth= 1 ICntrl=     0 DoSepK=T KAlg= 1 I1Cent= 0 FoldK=F
 E= -40.8648554297450     Delta-E=       -0.008735743345 Rises=F Damp=T
 DIIS: error= 9.24D-03 at cycle   2 NSaved=   2.
 NSaved= 2 IEnMin= 2 EnMin= -40.8648554297450     IErMin= 2 ErrMin= 9.24D-03
 ErrMax= 9.24D-03 EMaxC= 1.00D-01 BMatC= 9.88D-03 BMatP= 6.11D-02
 IDIUse=3 WtCom= 9.08D-01 WtEn= 9.24D-02
 Coeff-Com: -0.431D+00 0.143D+01
 Coeff-En:   0.000D+00 0.100D+01
 Coeff:     -0.391D+00 0.139D+01
 Gap=     0.430 Goal=   None    Shift=    0.000
 Gap=     0.566 Goal=   None    Shift=    0.000
 RMSDP=8.29D-04 MaxDP=2.44D-02 DE=-8.74D-03 OVMax= 4.34D-02

 Cycle   3  Pass 1  IDiag  1:
 RMSU=  4.81D-04    CP:  9.74D-01  1.90D+00
 FoFJK:  IHMeth= 1 ICntrl=     0 DoSepK=T KAlg= 1 I1Cent= 0 FoldK=F
 E= -40.8746467846746     Delta-E=       -0.009791354930 Rises=F Damp=F
 DIIS: error= 2.84D-03 at cycle   3 NSaved=   3.
 NSaved= 3 IEnMin= 3 EnMin= -40.8746467846746     IErMin= 3 ErrMin= 2.84D-03
 ErrMax= 2.84D-03 EMaxC= 1.00D-01 BMatC= 7.20D-04 BMatP= 9.88D-03
 IDIUse=3 WtCom= 9.72D-01 WtEn= 2.84D-02
 Coeff-Com: -0.640D-01-0.686D-01 0.113D+01
 Coeff-En:   0.000D+00 0.000D+00 0.100D+01
 Coeff:     -0.622D-01-0.667D-01 0.113D+01
 Gap=     0.433 Goal=   None    Shift=    0.000
 Gap=     0.564 Goal=   None    Shift=    0.000
 RMSDP=2.76D-04 MaxDP=1.00D-02 DE=-9.79D-03 OVMax= 2.19D-02

 Cycle   4  Pass 1  IDiag  1:
 RMSU=  7.21D-05    CP:  9.71D-01  2.17D+00  1.32D+00
 FoFJK:  IHMeth= 1 ICntrl=     0 DoSepK=T KAlg= 1 I1Cent= 0 FoldK=F
 E= -40.8751790620444     Delta-E=       -0.000532277370 Rises=F Damp=F
 DIIS: error= 1.24D-03 at cycle   4 NSaved=   4.
 NSaved= 4 IEnMin= 4 EnMin= -40.8751790620444     IErMin= 4 ErrMin= 1.24D-03
 ErrMax= 1.24D-03 EMaxC= 1.00D-01 BMatC= 5.65D-05 BMatP= 7.20D-04
 IDIUse=3 WtCom= 9.88D-01 WtEn= 1.24D-02
 Coeff-Com:  0.330D-01-0.520D-01-0.355D+00 0.137D+01
 Coeff-En:   0.000D+00 0.000D+00 0.000D+00 0.100D+01
 Coeff:      0.326D-01-0.514D-01-0.350D+00 0.137D+01
 Gap=     0.435 Goal=   None    Shift=    0.000
 Gap=     0.564 Goal=   None    Shift=    0.000
 RMSDP=1.10D-04 MaxDP=4.10D-03 DE=-5.32D-04 OVMax= 9.67D-03

 Cycle   5  Pass 1  IDiag  1:
 RMSU=  1.39D-05    CP:  9.70D-01  2.24D+00  1.45D+00  1.67D+00
 FoFJK:  IHMeth= 1 ICntrl=     0 DoSepK=T KAlg= 1 I1Cent= 0 FoldK=F
 E= -40.8752416784823     Delta-E=       -0.000062616438 Rises=F Damp=F
 DIIS: error= 2.27D-04 at cycle   5 NSaved=   5.
 NSaved= 5 IEnMin= 5 EnMin= -40.8752416784823     IErMin= 5 ErrMin= 2.27D-04
 ErrMax= 2.27D-04 EMaxC= 1.00D-01 BMatC= 3.65D-06 BMatP= 5.65D-05
 IDIUse=3 WtCom= 9.98D-01 WtEn= 2.27D-03
 Coeff-Com: -0.635D-02 0.216D-01 0.685D-01-0.530D+00 0.145D+01
 Coeff-En:   0.000D+00 0.000D+00 0.000D+00 0.000D+00 0.100D+01
 Coeff:     -0.634D-02 0.215D-01 0.683D-01-0.529D+00 0.145D+01
 Gap=     0.435 Goal=   None    Shift=    0.000
 Gap=     0.564 Goal=   None    Shift=    0.000
 RMSDP=2.38D-05 MaxDP=7.13D-04 DE=-6.26D-05 OVMax= 1.54D-03

 Cycle   6  Pass 1  IDiag  1:
 RMSU=  4.23D-06    CP:  9.70D-01  2.24D+00  1.46D+00  1.86D+00  1.70D+00
 FoFJK:  IHMeth= 1 ICntrl=     0 DoSepK=T KAlg= 1 I1Cent= 0 FoldK=F
 E= -40.8752450271848     Delta-E=       -0.000003348703 Rises=F Damp=F
 DIIS: error= 4.22D-05 at cycle   6 NSaved=   6.
 NSaved= 6 IEnMin= 6 EnMin= -40.8752450271848     IErMin= 6 ErrMin= 4.22D-05
 ErrMax= 4.22D-05 EMaxC= 1.00D-01 BMatC= 1.98D-07 BMatP= 3.65D-06
 IDIUse=1 WtCom= 1.00D+00 WtEn= 0.00D+00
 Coeff-Com: -0.378D-03-0.285D-02-0.524D-02 0.101D+00-0.465D+00 0.137D+01
 Coeff:     -0.378D-03-0.285D-02-0.524D-02 0.101D+00-0.465D+00 0.137D+01
 Gap=     0.435 Goal=   None    Shift=    0.000
 Gap=     0.564 Goal=   None    Shift=    0.000
 RMSDP=4.75D-06 MaxDP=9.81D-05 DE=-3.35D-06 OVMax= 2.31D-04

 Cycle   7  Pass 1  IDiag  1:
 RMSU=  1.35D-06    CP:  9.70D-01  2.24D+00  1.46D+00  1.87D+00  1.83D+00
                    CP:  1.73D+00
 FoFJK:  IHMeth= 1 ICntrl=     0 DoSepK=T KAlg= 1 I1Cent= 0 FoldK=F
 E= -40.8752452095557     Delta-E=       -0.000000182371 Rises=F Damp=F
 DIIS: error= 1.27D-05 at cycle   7 NSaved=   7.
 NSaved= 7 IEnMin= 7 EnMin= -40.8752452095557     IErMin= 7 ErrMin= 1.27D-05
 ErrMax= 1.27D-05 EMaxC= 1.00D-01 BMatC= 1.50D-08 BMatP= 1.98D-07
 IDIUse=1 WtCom= 1.00D+00 WtEn= 0.00D+00
 Coeff-Com:  0.822D-03-0.173D-02-0.453D-02 0.282D-01-0.426D-01-0.266D+00
 Coeff-Com:  0.129D+01
 Coeff:      0.822D-03-0.173D-02-0.453D-02 0.282D-01-0.426D-01-0.266D+00
 Coeff:      0.129D+01
 Gap=     0.435 Goal=   None    Shift=    0.000
 Gap=     0.564 Goal=   None    Shift=    0.000
 RMSDP=1.62D-06 MaxDP=3.57D-05 DE=-1.82D-07 OVMax= 7.94D-05

 Cycle   8  Pass 1  IDiag  1:
 RMSU=  2.76D-07    CP:  9.70D-01  2.24D+00  1.46D+00  1.86D+00  1.85D+00
                    CP:  1.99D+00  1.50D+00
 FoFJK:  IHMeth= 1 ICntrl=     0 DoSepK=T KAlg= 1 I1Cent= 0 FoldK=F
 E= -40.8752452234774     Delta-E=       -0.000000013922 Rises=F Damp=F
 DIIS: error= 1.74D-06 at cycle   8 NSaved=   8.
 NSaved= 8 IEnMin= 8 EnMin= -40.8752452234774     IErMin= 8 ErrMin= 1.74D-06
 ErrMax= 1.74D-06 EMaxC= 1.00D-01 BMatC= 4.87D-10 BMatP= 1.50D-08
 IDIUse=1 WtCom= 1.00D+00 WtEn= 0.00D+00
 Coeff-Com: -0.401D-05 0.245D-03 0.776D-03-0.870D-02 0.321D-01-0.578D-01
 Coeff-Com: -0.110D+00 0.114D+01
 Coeff:     -0.401D-05 0.245D-03 0.776D-03-0.870D-02 0.321D-01-0.578D-01
 Coeff:     -0.110D+00 0.114D+01
 Gap=     0.435 Goal=   None    Shift=    0.000
 Gap=     0.564 Goal=   None    Shift=    0.000
 RMSDP=2.76D-07 MaxDP=8.09D-06 DE=-1.39D-08 OVMax= 1.07D-05

 Cycle   9  Pass 1  IDiag  1:
 RMSU=  4.66D-08    CP:  9.70D-01  2.24D+00  1.46D+00  1.86D+00  1.85D+00
                    CP:  2.02D+00  1.61D+00  1.38D+00
 FoFJK:  IHMeth= 1 ICntrl=     0 DoSepK=T KAlg= 1 I1Cent= 0 FoldK=F
 E= -40.8752452238002     Delta-E=       -0.000000000323 Rises=F Damp=F
 DIIS: error= 6.94D-07 at cycle   9 NSaved=   9.
 NSaved= 9 IEnMin= 9 EnMin= -40.8752452238002     IErMin= 9 ErrMin= 6.94D-07
 ErrMax= 6.94D-07 EMaxC= 1.00D-01 BMatC= 2.55D-11 BMatP= 4.87D-10
 IDIUse=1 WtCom= 1.00D+00 WtEn= 0.00D+00
 Coeff-Com: -0.365D-04 0.206D-05-0.989D-04 0.159D-02-0.796D-02 0.264D-01
 Coeff-Com: -0.104D-01-0.314D+00 0.130D+01
 Coeff:     -0.365D-04 0.206D-05-0.989D-04 0.159D-02-0.796D-02 0.264D-01
 Coeff:     -0.104D-01-0.314D+00 0.130D+01
 Gap=     0.435 Goal=   None    Shift=    0.000
 Gap=     0.564 Goal=   None    Shift=    0.000
 RMSDP=6.10D-08 MaxDP=1.41D-06 DE=-3.23D-10 OVMax= 3.71D-06

 Cycle  10  Pass 1  IDiag  1:
 RMSU=  1.83D-08    CP:  9.70D-01  2.24D+00  1.46D+00  1.86D+00  1.85D+00
                    CP:  2.02D+00  1.61D+00  1.46D+00  1.52D+00
 FoFJK:  IHMeth= 1 ICntrl=     0 DoSepK=T KAlg= 1 I1Cent= 0 FoldK=F
 E= -40.8752452238237     Delta-E=       -0.000000000024 Rises=F Damp=F
 DIIS: error= 3.31D-07 at cycle  10 NSaved=  10.
 NSaved=10 IEnMin=10 EnMin= -40.8752452238237     IErMin=10 ErrMin= 3.31D-07
 ErrMax= 3.31D-07 EMaxC= 1.00D-01 BMatC= 3.92D-12 BMatP= 2.55D-11
 IDIUse=1 WtCom= 1.00D+00 WtEn= 0.00D+00
 Coeff-Com:  0.270D-04-0.268D-04 0.132D-06-0.250D-03 0.229D-02-0.118D-01
 Coeff-Com:  0.151D-01 0.102D+00-0.788D+00 0.168D+01
 Coeff:      0.270D-04-0.268D-04 0.132D-06-0.250D-03 0.229D-02-0.118D-01
 Coeff:      0.151D-01 0.102D+00-0.788D+00 0.168D+01
 Gap=     0.435 Goal=   None    Shift=    0.000
 Gap=     0.564 Goal=   None    Shift=    0.000
 RMSDP=2.77D-08 MaxDP=7.64D-07 DE=-2.36D-11 OVMax= 1.94D-06

 Cycle  11  Pass 1  IDiag  1:
 RMSU=  7.05D-09    CP:  9.70D-01  2.24D+00  1.46D+00  1.86D+00  1.85D+00
                    CP:  2.02D+00  1.61D+00  1.47D+00  1.76D+00  1.83D+00
 FoFJK:  IHMeth= 1 ICntrl=     0 DoSepK=T KAlg= 1 I1Cent= 0 FoldK=F
 E= -40.8752452238298     Delta-E=       -0.000000000006 Rises=F Damp=F
 DIIS: error= 9.46D-08 at cycle  11 NSaved=  11.
 NSaved=11 IEnMin=11 EnMin= -40.8752452238298     IErMin=11 ErrMin= 9.46D-08
 ErrMax= 9.46D-08 EMaxC= 1.00D-01 BMatC= 3.49D-13 BMatP= 3.92D-12
 IDIUse=1 WtCom= 1.00D+00 WtEn= 0.00D+00
 Coeff-Com: -0.785D-05 0.127D-04 0.105D-04-0.102D-03 0.853D-04 0.150D-02
 Coeff-Com: -0.540D-02-0.120D-03 0.153D+00-0.660D+00 0.151D+01
 Coeff:     -0.785D-05 0.127D-04 0.105D-04-0.102D-03 0.853D-04 0.150D-02
 Coeff:     -0.540D-02-0.120D-03 0.153D+00-0.660D+00 0.151D+01
 Gap=     0.435 Goal=   None    Shift=    0.000
 Gap=     0.564 Goal=   None    Shift=    0.000
 RMSDP=9.05D-09 MaxDP=3.04D-07 DE=-6.01D-12 OVMax= 6.41D-07

 SCF Done:  E(ULC-B+HF-LYP) =  -40.8752452238     A.U. after   11 cycles
             Convg  =    0.9050D-08             -V/T =  2.0049
 <Sx>= 0.0000 <Sy>= 0.0000 <Sz>= 0.5000 <S**2>= 0.7536 S= 0.5018
 <L.S>= 0.000000000000E+00
 KE= 4.067608837741D+01 PE=-1.208554117179D+02 EE= 2.590240742356D+01
 Annihilation of the first spin contaminant:
 S**2 before annihilation     0.7536,   after     0.7500
 Leave Link  502 at Wed Nov  3 01:50:44 2010, MaxMem=  786432000 cpu:     257.2
 (Enter /share/apps/G09A02/g09/l601.exe)
 Copying SCF densities to generalized density rwf, IOpCl= 1 IROHF=0.

 **********************************************************************

            Population analysis using the SCF density.

 **********************************************************************

 Alpha  occ. eigenvalues --  -10.14739  -0.85445  -0.56406  -0.55908  -0.55908
 Alpha  occ. eigenvalues --   -0.36596
 Alpha virt. eigenvalues --    0.06917   0.09187   0.09187   0.12681   0.16609
 Alpha virt. eigenvalues --    0.23367   0.23367   0.24372   0.36611   0.38407
 Alpha virt. eigenvalues --    0.38408   0.40331   0.40331   0.48797   0.61390
 Alpha virt. eigenvalues --    0.62888   0.62888   0.65654   0.66307   0.66307
 Alpha virt. eigenvalues --    0.72619   0.80237   0.82539   0.82539   0.94738
 Alpha virt. eigenvalues --    1.00640   1.00640   1.04494   1.15355   1.15355
 Alpha virt. eigenvalues --    1.19996   1.19997   1.27007   1.48529   1.49021
 Alpha virt. eigenvalues --    1.49022   1.65604   1.78697   1.78697   2.12691
 Alpha virt. eigenvalues --    2.14804   2.14804   2.45366   2.56457   2.58366
 Alpha virt. eigenvalues --    2.77778   2.77778   2.85151   3.05593   3.12789
 Alpha virt. eigenvalues --    3.12789   3.16486   3.20846   3.20846   3.56528
 Alpha virt. eigenvalues --    3.56528   3.72324   3.72324   3.91089   4.03471
 Alpha virt. eigenvalues --    4.27819   4.27819   4.34562   4.34562   4.38978
 Alpha virt. eigenvalues --    4.38978   4.40535   4.96538   5.35033   5.73129
 Alpha virt. eigenvalues --    5.73129   5.77753   7.15224   7.15225   7.30359
 Alpha virt. eigenvalues --    7.72801   7.72801  24.22814
  Beta  occ. eigenvalues --  -10.13317  -0.80844  -0.56097  -0.54846  -0.54846
  Beta virt. eigenvalues --    0.01566   0.06913   0.09033   0.09033   0.14065
  Beta virt. eigenvalues --    0.18207   0.23605   0.23605   0.25358   0.37094
  Beta virt. eigenvalues --    0.39567   0.39567   0.40330   0.40330   0.50490
  Beta virt. eigenvalues --    0.61875   0.63100   0.63100   0.67027   0.67027
  Beta virt. eigenvalues --    0.68767   0.73240   0.81183   0.82541   0.82541
  Beta virt. eigenvalues --    0.94703   1.01158   1.01158   1.05290   1.15448
  Beta virt. eigenvalues --    1.15448   1.20025   1.20025   1.27708   1.49547
  Beta virt. eigenvalues --    1.49547   1.51059   1.65713   1.83511   1.83511
  Beta virt. eigenvalues --    2.15795   2.15795   2.15802   2.46057   2.56680
  Beta virt. eigenvalues --    2.58413   2.79073   2.79073   2.90654   3.05993
  Beta virt. eigenvalues --    3.15732   3.15732   3.20905   3.24214   3.24214
  Beta virt. eigenvalues --    3.56675   3.56675   3.73229   3.73229   3.91407
  Beta virt. eigenvalues --    4.03848   4.27456   4.27456   4.35134   4.35134
  Beta virt. eigenvalues --    4.39278   4.39278   4.41188   4.96704   5.35989
  Beta virt. eigenvalues --    5.73719   5.73719   5.77855   7.21542   7.21544
  Beta virt. eigenvalues --    7.38374   7.74419   7.74420  24.24683
          Condensed to atoms (all electrons):
              1          2          3          4          5          6
     1  C    5.385525  -0.005689   0.401661   0.401661   0.401661  -0.009759
     2  H   -0.005689   0.585416  -0.000146  -0.000146  -0.000146   0.423365
     3  H    0.401661  -0.000146   0.445978  -0.020650  -0.020650  -0.000046
     4  H    0.401661  -0.000146  -0.020650   0.445981  -0.020650  -0.000046
     5  H    0.401661  -0.000146  -0.020650  -0.020650   0.445981  -0.000046
     6  H   -0.009759   0.423365  -0.000046  -0.000046  -0.000046   0.590370
 Mulliken atomic charges:
              1
     1  C   -0.575061
     2  H   -0.002655
     3  H    0.193852
     4  H    0.193850
     5  H    0.193850
     6  H   -0.003837
 Sum of Mulliken atomic charges =   0.00000
 Mulliken charges with hydrogens summed into heavy atoms:
              1
     1  C    0.000000
 Sum of Mulliken charges with hydrogens summed into heavy atoms =   0.00000
          Atomic-Atomic Spin Densities.
              1          2          3          4          5          6
     1  C    1.062055  -0.002052   0.004853   0.004853   0.004853  -0.008004
     2  H   -0.002052  -0.010105  -0.000012  -0.000012  -0.000012   0.001541
     3  H    0.004853  -0.000012  -0.034404   0.002904   0.002904  -0.000042
     4  H    0.004853  -0.000012   0.002904  -0.034406   0.002904  -0.000042
     5  H    0.004853  -0.000012   0.002904   0.002904  -0.034406  -0.000042
     6  H   -0.008004   0.001541  -0.000042  -0.000042  -0.000042   0.022079
 Mulliken atomic spin densities:
              1
     1  C    1.066558
     2  H   -0.010653
     3  H   -0.023798
     4  H   -0.023799
     5  H   -0.023799
     6  H    0.015492
 Sum of Mulliken atomic spin densities =   1.00000
 Electronic spatial extent (au):  <R**2>=            106.2171
 Charge=              0.0000 electrons
 Dipole moment (field-independent basis, Debye):
    X=              0.0000    Y=              0.0000    Z=             -0.0803  Tot=              0.0803
 Quadrupole moment (field-independent basis, Debye-Ang):
   XX=             -9.4574   YY=             -9.4574   ZZ=            -11.0769
   XY=              0.0000   XZ=              0.0000   YZ=              0.0000
 Traceless Quadrupole moment (field-independent basis, Debye-Ang):
   XX=              0.5398   YY=              0.5398   ZZ=             -1.0797
   XY=              0.0000   XZ=              0.0000   YZ=              0.0000
 Octapole moment (field-independent basis, Debye-Ang**2):
  XXX=              0.9829  YYY=              0.0000  ZZZ=            -16.1630  XYY=             -0.9829
  XXY=              0.0000  XXZ=             -6.8403  XZZ=              0.0000  YZZ=              0.0000
  YYZ=             -6.8403  XYZ=              0.0000
 Hexadecapole moment (field-independent basis, Debye-Ang**3):
 XXXX=            -17.6004 YYYY=            -17.6004 ZZZZ=           -114.3468 XXXY=              0.0000
 XXXZ=             -0.0081 YYYX=              0.0000 YYYZ=              0.0000 ZZZX=              0.0000
 ZZZY=              0.0000 XXYY=             -5.8668 XXZZ=            -27.4828 YYZZ=            -27.4828
 XXYZ=              0.0000 YYXZ=              0.0081 ZZXY=              0.0000
 N-N= 1.340167069307D+01 E-N=-1.781714215647D+02  KE= 6.040750577388D+01
                          Isotropic Fermi Contact Couplings
        Atom                 a.u.       MegaHertz       Gauss      10(-4) cm-1
     1  C(13)              0.02888      32.47220      11.58689      10.83156
     2  H(1)              -0.00107      -4.78132      -1.70609      -1.59488
     3  H(1)              -0.01320     -59.02319     -21.06094     -19.68802
     4  H(1)              -0.01320     -59.02359     -21.06108     -19.68815
     5  H(1)              -0.01320     -59.02359     -21.06108     -19.68815
     6  H(1)               0.00587      26.24781       9.36587       8.75533
 --------------------------------------------------------
       Center         ----  Spin Dipole Couplings  ----
                      3XX-RR        3YY-RR        3ZZ-RR
 --------------------------------------------------------
     1   Atom       -0.592963     -0.592965      1.185928
     2   Atom       -0.011884     -0.011884      0.023768
     3   Atom        0.074373     -0.075303      0.000930
     4   Atom       -0.037884      0.036954      0.000930
     5   Atom       -0.037884      0.036954      0.000930
     6   Atom       -0.003811     -0.003811      0.007622
 --------------------------------------------------------
                        XY            XZ            YZ
 --------------------------------------------------------
     1   Atom        0.000000      0.000000      0.000000
     2   Atom        0.000000      0.000000      0.000000
     3   Atom        0.000000     -0.000384      0.000000
     4   Atom        0.064811      0.000192      0.000333
     5   Atom       -0.064811      0.000192     -0.000333
     6   Atom        0.000000      0.000000      0.000000
 --------------------------------------------------------


 ---------------------------------------------------------------------------------
              Anisotropic Spin Dipole Couplings in Principal Axis System
 ---------------------------------------------------------------------------------

       Atom             a.u.   MegaHertz   Gauss  10(-4) cm-1        Axes

              Baa    -0.5930   -79.570   -28.393   -26.542  0.0000  1.0000  0.0000
     1 C(13)  Bbb    -0.5930   -79.570   -28.393   -26.542  1.0000  0.0000  0.0000
              Bcc     1.1859   159.140    56.785    53.083  0.0000  0.0000  1.0000
 
              Baa    -0.0119    -6.341    -2.263    -2.115  1.0000  0.0000  0.0000
     2 H(1)   Bbb    -0.0119    -6.341    -2.263    -2.115  0.0000  1.0000  0.0000
              Bcc     0.0238    12.681     4.525     4.230  0.0000  0.0000  1.0000
 
              Baa    -0.0753   -40.178   -14.336   -13.402  0.0000  1.0000  0.0000
     3 H(1)   Bbb     0.0009     0.495     0.177     0.165  0.0052  0.0000  1.0000
              Bcc     0.0744    39.683    14.160    13.237  1.0000  0.0000 -0.0052
 
              Baa    -0.0753   -40.178   -14.337   -13.402  0.8660 -0.5000  0.0000
     4 H(1)   Bbb     0.0009     0.495     0.177     0.165 -0.0026 -0.0045  1.0000
              Bcc     0.0744    39.683    14.160    13.237  0.5000  0.8660  0.0052
 
              Baa    -0.0753   -40.178   -14.337   -13.402  0.8660  0.5000  0.0000
     5 H(1)   Bbb     0.0009     0.495     0.177     0.165 -0.0026  0.0045  1.0000
              Bcc     0.0744    39.683    14.160    13.237 -0.5000  0.8660 -0.0052
 
              Baa    -0.0038    -2.033    -0.726    -0.678  1.0000  0.0000  0.0000
     6 H(1)   Bbb    -0.0038    -2.033    -0.726    -0.678  0.0000  1.0000  0.0000
              Bcc     0.0076     4.066     1.451     1.356  0.0000  0.0000  1.0000
 

 ---------------------------------------------------------------------------------

 No NMR shielding tensors so no spin-rotation constants.
 Leave Link  601 at Wed Nov  3 01:50:45 2010, MaxMem=  786432000 cpu:       3.8
 (Enter /share/apps/G09A02/g09/l9999.exe)
 1\1\GINC-COMPUTE-0-7\SP\ULC-BLYP\6-311+G(3df,2p)\C1H5(2)\WENXINZY\03-N
 ov-2010\0\\#p lc-blyp/6-311+g(3df,2p) nosymm scf=tight\\26 H2+CH3\\0,2
 \C\H,1,2.7686933\H,1,1.0792602,2,90.2456192\H,1,1.0792602,2,90.2456192
 ,3,120.,0\H,1,1.0792602,2,90.2456192,3,-120.,0\H,2,0.7440902,1,180.,3,
 0.,0\\Version=EM64L-G09RevA.02\HF=-40.8752452\S2=0.753612\S2-1=0.\S2A=
 0.750007\RMSD=9.050e-09\Dipole=0.0000009,0.,-0.0315858\Quadrupole=0.40
 13578,0.4013582,-0.802716,0.,0.0000055,0.\PG=C03V [C3(H1H1C1),3SGV(H1)
 ]\\@


 A SUCCESSFUL PURSUIT OF SCIENCE MAKES A MAN THE
 BENEFACTOR OF ALL MANKIND OF EVERY AGE.
   --  JOSEPH PRIESTLEY, "EXPERIMENTS AND
 OBSERVATIONS ON DIFFERENT KINDS OF AIR", 1774
 Job cpu time:  0 days  0 hours  4 minutes 31.0 seconds.
 File lengths (MBytes):  RWF=      9 Int=      0 D2E=      0 Chk=      1 Scr=      1
 Normal termination of Gaussian 09 at Wed Nov  3 01:50:45 2010.
