 Entering Gaussian System, Link 0=/share/apps/G09A02/g09/g09
 Input=./.script12553/Job_H2_CH3_12.com
 Output=./.script12553/Job_H2_CH3_12.log
 Initial command:
 /share/apps/G09A02/g09/l1.exe /state/partition1/wenxinzy/scratch/Gau-18781.inp -scrdir=/state/partition1/wenxinzy/scratch/
 Default is to use a total of   8 processors:
                                8 via shared-memory
                                1 via Linda
 Entering Link 1 = /share/apps/G09A02/g09/l1.exe PID=     18782.
  
 Copyright (c) 1988,1990,1992,1993,1995,1998,2003,2009, Gaussian, Inc.
                  All Rights Reserved.
  
 This is part of the Gaussian(R) 09 program.  It is based on
 the Gaussian(R) 03 system (copyright 2003, Gaussian, Inc.),
 the Gaussian(R) 98 system (copyright 1998, Gaussian, Inc.),
 the Gaussian(R) 94 system (copyright 1995, Gaussian, Inc.),
 the Gaussian 92(TM) system (copyright 1992, Gaussian, Inc.),
 the Gaussian 90(TM) system (copyright 1990, Gaussian, Inc.),
 the Gaussian 88(TM) system (copyright 1988, Gaussian, Inc.),
 the Gaussian 86(TM) system (copyright 1986, Carnegie Mellon
 University), and the Gaussian 82(TM) system (copyright 1983,
 Carnegie Mellon University). Gaussian is a federally registered
 trademark of Gaussian, Inc.
  
 This software contains proprietary and confidential information,
 including trade secrets, belonging to Gaussian, Inc.
  
 This software is provided under written license and may be
 used, copied, transmitted, or stored only in accord with that
 written license.
  
 The following legend is applicable only to US Government
 contracts under FAR:
  
                    RESTRICTED RIGHTS LEGEND
  
 Use, reproduction and disclosure by the US Government is
 subject to restrictions as set forth in subparagraphs (a)
 and (c) of the Commercial Computer Software - Restricted
 Rights clause in FAR 52.227-19.
  
 Gaussian, Inc.
 340 Quinnipiac St., Bldg. 40, Wallingford CT 06492
  
  
 ---------------------------------------------------------------
 Warning -- This program may not be used in any manner that
 competes with the business of Gaussian, Inc. or will provide
 assistance to any competitor of Gaussian, Inc.  The licensee
 of this program is prohibited from giving any competitor of
 Gaussian, Inc. access to this program.  By using this program,
 the user acknowledges that Gaussian, Inc. is engaged in the
 business of creating and licensing software in the field of
 computational chemistry and represents and warrants to the
 licensee that it is not a competitor of Gaussian, Inc. and that
 it will not use this program in any manner prohibited above.
 ---------------------------------------------------------------
  

 Cite this work as:
 Gaussian 09, Revision A.02,
 M. J. Frisch, G. W. Trucks, H. B. Schlegel, G. E. Scuseria, 
 M. A. Robb, J. R. Cheeseman, G. Scalmani, V. Barone, B. Mennucci, 
 G. A. Petersson, H. Nakatsuji, M. Caricato, X. Li, H. P. Hratchian, 
 A. F. Izmaylov, J. Bloino, G. Zheng, J. L. Sonnenberg, M. Hada, 
 M. Ehara, K. Toyota, R. Fukuda, J. Hasegawa, M. Ishida, T. Nakajima, 
 Y. Honda, O. Kitao, H. Nakai, T. Vreven, J. A. Montgomery, Jr., 
 J. E. Peralta, F. Ogliaro, M. Bearpark, J. J. Heyd, E. Brothers, 
 K. N. Kudin, V. N. Staroverov, R. Kobayashi, J. Normand, 
 K. Raghavachari, A. Rendell, J. C. Burant, S. S. Iyengar, J. Tomasi, 
 M. Cossi, N. Rega, J. M. Millam, M. Klene, J. E. Knox, J. B. Cross, 
 V. Bakken, C. Adamo, J. Jaramillo, R. Gomperts, R. E. Stratmann, 
 O. Yazyev, A. J. Austin, R. Cammi, C. Pomelli, J. W. Ochterski, 
 R. L. Martin, K. Morokuma, V. G. Zakrzewski, G. A. Voth, 
 P. Salvador, J. J. Dannenberg, S. Dapprich, A. D. Daniels, 
 O. Farkas, J. B. Foresman, J. V. Ortiz, J. Cioslowski, 
 and D. J. Fox, Gaussian, Inc., Wallingford CT, 2009.
 
 ******************************************
 Gaussian 09:  EM64L-G09RevA.02 11-Jun-2009
                 3-Nov-2010 
 ******************************************
 %chk=/state/partition1/wenxinzy/scratch/H2_CH3_12.chk
 %nproc=8
 Will use up to    8 processors via shared memory.
 %mem=6000mb
 -------------------------------------------
 #p lc-blyp/6-311+g(3df,2p) nosymm scf=tight
 -------------------------------------------
 1/38=1/1;
 2/12=2,15=1,17=6,18=5,40=1/2;
 3/5=4,6=6,7=216,11=2,16=1,25=1,30=1,74=1000402/1,2,3;
 4//1;
 5/5=2,32=2,38=5/2;
 6/7=2,8=2,9=2,10=2,28=1/1;
 99/5=1,9=1/99;
 Leave Link    1 at Wed Nov  3 01:42:26 2010, MaxMem=  786432000 cpu:       0.4
 (Enter /share/apps/G09A02/g09/l101.exe)
 ---------
 13 H2+CH3
 ---------
 Symbolic Z-matrix:
 Charge =  0 Multiplicity = 2
 C
 H1                   C    R1
 H2                   C    R2       H1   A1
 H3                   C    R2       H1   A1       H2    120.     0
 H4                   C    R2       H1   A1       H2   -120.     0
 H5                   H1   R3       C     180.     H2    0.       0
       Variables:
  R1                    2.07048                  
  R2                    1.07944                  
  A1                   92.41856                  
  R3                    0.75216                  
 
 NAtoms=      6 NQM=      6 NQMF=      0 NMic=      0 NMicF=      0 NTot=      6.
                    Isotopes and Nuclear Properties:
 (Nuclear quadrupole moments (NQMom) in fm**2, nuclear magnetic moments (NMagM)
  in nuclear magnetons)

  Atom         1           2           3           4           5           6
 IAtWgt=          12           1           1           1           1           1
 AtmWgt=  12.0000000   1.0078250   1.0078250   1.0078250   1.0078250   1.0078250
 NucSpn=           0           1           1           1           1           1
 AtZEff=   0.0000000   0.0000000   0.0000000   0.0000000   0.0000000   0.0000000
 NQMom=    0.0000000   0.0000000   0.0000000   0.0000000   0.0000000   0.0000000
 NMagM=    0.0000000   2.7928460   2.7928460   2.7928460   2.7928460   2.7928460
 Leave Link  101 at Wed Nov  3 01:42:26 2010, MaxMem=  786432000 cpu:       1.2
 (Enter /share/apps/G09A02/g09/l202.exe)
                          Input orientation:                          
 ---------------------------------------------------------------------
 Center     Atomic      Atomic             Coordinates (Angstroms)
 Number     Number       Type             X           Y           Z
 ---------------------------------------------------------------------
      1          6           0        0.000000    0.000000    0.000000
      2          1           0        0.000000    0.000000    2.070481
      3          1           0        1.078477    0.000000   -0.045551
      4          1           0       -0.539239   -0.933989   -0.045551
      5          1           0       -0.539239    0.933989   -0.045551
      6          1           0        0.000000    0.000000    2.822645
 ---------------------------------------------------------------------
                    Distance matrix (angstroms):
                    1          2          3          4          5
     1  C    0.000000
     2  H    2.070481   0.000000
     3  H    1.079439   2.375017   0.000000
     4  H    1.079439   2.375017   1.867977   0.000000
     5  H    1.079439   2.375017   1.867977   1.867977   0.000000
     6  H    2.822645   0.752164   3.064256   3.064256   3.064256
                    6
     6  H    0.000000
 Symmetry turned off by external request.
 Stoichiometry    CH5(2)
 Framework group  C3V[C3(HHC),3SGV(H)]
 Deg. of freedom     4
 Full point group                 C3V     NOp   6
 Rotational constants (GHZ):    143.7106056     39.5876660     39.5876660
 Leave Link  202 at Wed Nov  3 01:42:26 2010, MaxMem=  786432000 cpu:       0.0
 (Enter /share/apps/G09A02/g09/l301.exe)
 Standard basis: 6-311+G(3df,2p) (5D, 7F)
 Ernie: Thresh=  0.10000D-02 Tol=  0.10000D-05 Strict=F.
 Integral buffers will be    131072 words long.
 Raffenetti 2 integral format.
 Two-electron integral symmetry is turned off.
    84 basis functions,   113 primitive gaussians,    90 cartesian basis functions
     6 alpha electrons        5 beta electrons
       nuclear repulsion energy        14.2224664387 Hartrees.
 IExCor=10402 DFT=T Ex=LC-B+HF Corr=LYP ExCW=0 ScaHFX=  1.000000
 ScaDFX=  1.000000  1.000000  1.000000  1.000000 ScalE2=  1.000000  1.000000
 IRadAn=      0 IRanWt=     -1 IRanGd=            0 ICorTp=0
  HFx wShort=  0.000000 wLong=  0.470000 cFull=  0.000000 cShort=  0.000000 cLong=  1.000000
  DFx wShort=  0.000000 wLong=  0.470000 cFull=  0.000000 cShort=  0.000000 cLong=  1.000000
 NAtoms=    6 NActive=    6 NUniq=    6 SFac= 7.50D-01 NAtFMM=   80 NAOKFM=F Big=F
 Leave Link  301 at Wed Nov  3 01:42:26 2010, MaxMem=  786432000 cpu:       0.7
 (Enter /share/apps/G09A02/g09/l302.exe)
 NPDir=0 NMtPBC=     1 NCelOv=     1 NCel=       1 NClECP=     1 NCelD=      1
         NCelK=      1 NCelE2=     1 NClLst=     1 CellRange=     0.0.
 One-electron integrals computed using PRISM.
 NBasis=    84 RedAO= T  NBF=    84
 NBsUse=    84 1.00D-06 NBFU=    84
 Precomputing XC quadrature grid using
 IXCGrd= 2 IRadAn=           0 IRanWt=          -1 IRanGd=           0 AccXCQ= 1.00D-10.
 NRdTot=     383 NPtTot=       48302 NUsed=       51074 NTot=       51106
 NSgBfM=    90    90    90    90    90 NAtAll=     6     6.
 Leave Link  302 at Wed Nov  3 01:42:26 2010, MaxMem=  786432000 cpu:       2.5
 (Enter /share/apps/G09A02/g09/l303.exe)
 DipDrv:  MaxL=1.
 Leave Link  303 at Wed Nov  3 01:42:26 2010, MaxMem=  786432000 cpu:       0.6
 (Enter /share/apps/G09A02/g09/l401.exe)
 Harris functional with IExCor=10402 diagonalized for initial guess.
 ExpMin= 4.38D-02 ExpMax= 4.56D+03 ExpMxC= 6.82D+02 IAcc=2 IRadAn=         0 AccDes= 0.00D+00
 HarFok:  IExCor=10402 AccDes= 0.00D+00 IRadAn=         0 IDoV= 1
 ScaDFX=  1.000000  1.000000  1.000000  1.000000
 FoFCou: FMM=F IPFlag=           0 FMFlag=      100000 FMFlg1=           0
         NFxFlg=           0 DoJE=T BraDBF=F KetDBF=T FulRan=T
         Omega=  0.000000  0.000000  1.000000  0.000000  0.000000 ICntrl=     500 IOpCl=  0
         NMat0=    1 NMatS0=    1 NMatT0=    0 NMatD0=    1 NMtDS0=    0 NMtDT0=    0
         I1Cent=           4 NGrid=           0.
 Symmetry not used in FoFCou.
 Harris En= -38.5321082470254    
 Initial guess <Sx>= 0.0000 <Sy>= 0.0000 <Sz>= 0.5000 <S**2>= 0.7500 S= 0.5000
 Leave Link  401 at Wed Nov  3 01:42:27 2010, MaxMem=  786432000 cpu:       3.7
 (Enter /share/apps/G09A02/g09/l502.exe)
 UHF open shell SCF:
 Requested convergence on RMS density matrix=1.00D-08 within 128 cycles.
 Requested convergence on MAX density matrix=1.00D-06.
 Requested convergence on             energy=1.00D-06.
 No special actions if energy rises.
 Using DIIS extrapolation, IDIIS=  1040.
 Two-electron integral symmetry not used.
        51007 words used for storage of precomputed grid.
 IEnd=       94725 IEndB=       94725 NGot=   786432000 MDV=   786362106
 LenX=   786362106 LenY=   786353565
 Fock matrices will be formed incrementally for  20 cycles.

 Cycle   1  Pass 1  IDiag  1:
 FoFJK:  IHMeth= 1 ICntrl=     0 DoSepK=T KAlg= 1 I1Cent= 0 FoldK=F
 FoFCou: FMM=F IPFlag=           0 FMFlag=      100000 FMFlg1=           0
         NFxFlg=           0 DoJE=T BraDBF=F KetDBF=F FulRan=T
         Omega=  0.000000  0.000000  1.000000  0.000000  0.000000 ICntrl=     500 IOpCl=  0
         NMat0=    1 NMatS0=    1 NMatT0=    0 NMatD0=    1 NMtDS0=    0 NMtDT0=    0
         I1Cent=           0 NGrid=           0.
 Symmetry not used in FoFCou.
 E= -40.8501818561668    
 DIIS: error= 1.77D-02 at cycle   1 NSaved=   1.
 NSaved= 1 IEnMin= 1 EnMin= -40.8501818561668     IErMin= 1 ErrMin= 1.77D-02
 ErrMax= 1.77D-02 EMaxC= 1.00D-01 BMatC= 6.83D-02 BMatP= 6.83D-02
 IDIUse=3 WtCom= 8.23D-01 WtEn= 1.77D-01
 Coeff-Com:  0.100D+01
 Coeff-En:   0.100D+01
 Coeff:      0.100D+01
 Gap=     0.380 Goal=   None    Shift=    0.000
 Gap=     0.610 Goal=   None    Shift=    0.000
 GapD=    0.380 DampG=1.000 DampE=0.500 DampFc=0.5000 IDamp=-1.
 Damping current iteration by 5.00D-01
 RMSDP=1.85D-03 MaxDP=6.74D-02              OVMax= 6.23D-02

 Cycle   2  Pass 1  IDiag  1:
 RMSU=  7.22D-04    CP:  9.75D-01
 FoFJK:  IHMeth= 1 ICntrl=     0 DoSepK=T KAlg= 1 I1Cent= 0 FoldK=F
 E= -40.8602669689196     Delta-E=       -0.010085112753 Rises=F Damp=T
 DIIS: error= 7.77D-03 at cycle   2 NSaved=   2.
 NSaved= 2 IEnMin= 2 EnMin= -40.8602669689196     IErMin= 2 ErrMin= 7.77D-03
 ErrMax= 7.77D-03 EMaxC= 1.00D-01 BMatC= 1.04D-02 BMatP= 6.83D-02
 IDIUse=3 WtCom= 9.22D-01 WtEn= 7.77D-02
 Coeff-Com: -0.391D+00 0.139D+01
 Coeff-En:   0.000D+00 0.100D+01
 Coeff:     -0.361D+00 0.136D+01
 Gap=     0.423 Goal=   None    Shift=    0.000
 Gap=     0.568 Goal=   None    Shift=    0.000
 RMSDP=1.24D-03 MaxDP=3.43D-02 DE=-1.01D-02 OVMax= 4.46D-02

 Cycle   3  Pass 1  IDiag  1:
 RMSU=  6.56D-04    CP:  9.56D-01  2.12D+00
 FoFJK:  IHMeth= 1 ICntrl=     0 DoSepK=T KAlg= 1 I1Cent= 0 FoldK=F
 E= -40.8714628268149     Delta-E=       -0.011195857895 Rises=F Damp=F
 DIIS: error= 2.49D-03 at cycle   3 NSaved=   3.
 NSaved= 3 IEnMin= 3 EnMin= -40.8714628268149     IErMin= 3 ErrMin= 2.49D-03
 ErrMax= 2.49D-03 EMaxC= 1.00D-01 BMatC= 7.97D-04 BMatP= 1.04D-02
 IDIUse=3 WtCom= 9.75D-01 WtEn= 2.49D-02
 Coeff-Com: -0.495D-01-0.111D+00 0.116D+01
 Coeff-En:   0.000D+00 0.000D+00 0.100D+01
 Coeff:     -0.483D-01-0.108D+00 0.116D+01
 Gap=     0.425 Goal=   None    Shift=    0.000
 Gap=     0.568 Goal=   None    Shift=    0.000
 RMSDP=4.07D-04 MaxDP=9.14D-03 DE=-1.12D-02 OVMax= 2.20D-02

 Cycle   4  Pass 1  IDiag  1:
 RMSU=  1.02D-04    CP:  9.49D-01  2.45D+00  1.33D+00
 FoFJK:  IHMeth= 1 ICntrl=     0 DoSepK=T KAlg= 1 I1Cent= 0 FoldK=F
 E= -40.8720867235398     Delta-E=       -0.000623896725 Rises=F Damp=F
 DIIS: error= 9.49D-04 at cycle   4 NSaved=   4.
 NSaved= 4 IEnMin= 4 EnMin= -40.8720867235398     IErMin= 4 ErrMin= 9.49D-04
 ErrMax= 9.49D-04 EMaxC= 1.00D-01 BMatC= 6.23D-05 BMatP= 7.97D-04
 IDIUse=3 WtCom= 9.91D-01 WtEn= 9.49D-03
 Coeff-Com:  0.220D-01-0.388D-01-0.308D+00 0.133D+01
 Coeff-En:   0.000D+00 0.000D+00 0.000D+00 0.100D+01
 Coeff:      0.218D-01-0.384D-01-0.305D+00 0.132D+01
 Gap=     0.427 Goal=   None    Shift=    0.000
 Gap=     0.568 Goal=   None    Shift=    0.000
 RMSDP=1.38D-04 MaxDP=3.25D-03 DE=-6.24D-04 OVMax= 9.21D-03

 Cycle   5  Pass 1  IDiag  1:
 RMSU=  2.10D-05    CP:  9.46D-01  2.54D+00  1.45D+00  1.56D+00
 FoFJK:  IHMeth= 1 ICntrl=     0 DoSepK=T KAlg= 1 I1Cent= 0 FoldK=F
 E= -40.8721543876057     Delta-E=       -0.000067664066 Rises=F Damp=F
 DIIS: error= 2.22D-04 at cycle   5 NSaved=   5.
 NSaved= 5 IEnMin= 5 EnMin= -40.8721543876057     IErMin= 5 ErrMin= 2.22D-04
 ErrMax= 2.22D-04 EMaxC= 1.00D-01 BMatC= 4.50D-06 BMatP= 6.23D-05
 IDIUse=3 WtCom= 9.98D-01 WtEn= 2.22D-03
 Coeff-Com: -0.260D-02 0.176D-01 0.276D-01-0.413D+00 0.137D+01
 Coeff-En:   0.000D+00 0.000D+00 0.000D+00 0.000D+00 0.100D+01
 Coeff:     -0.259D-02 0.176D-01 0.275D-01-0.412D+00 0.137D+01
 Gap=     0.428 Goal=   None    Shift=    0.000
 Gap=     0.568 Goal=   None    Shift=    0.000
 RMSDP=2.65D-05 MaxDP=7.17D-04 DE=-6.77D-05 OVMax= 1.75D-03

 Cycle   6  Pass 1  IDiag  1:
 RMSU=  5.90D-06    CP:  9.46D-01  2.54D+00  1.46D+00  1.70D+00  1.64D+00
 FoFJK:  IHMeth= 1 ICntrl=     0 DoSepK=T KAlg= 1 I1Cent= 0 FoldK=F
 E= -40.8721586240148     Delta-E=       -0.000004236409 Rises=F Damp=F
 DIIS: error= 4.85D-05 at cycle   6 NSaved=   6.
 NSaved= 6 IEnMin= 6 EnMin= -40.8721586240148     IErMin= 6 ErrMin= 4.85D-05
 ErrMax= 4.85D-05 EMaxC= 1.00D-01 BMatC= 3.65D-07 BMatP= 4.50D-06
 IDIUse=1 WtCom= 1.00D+00 WtEn= 0.00D+00
 Coeff-Com: -0.157D-02 0.152D-02 0.191D-01-0.486D-01-0.179D+00 0.121D+01
 Coeff:     -0.157D-02 0.152D-02 0.191D-01-0.486D-01-0.179D+00 0.121D+01
 Gap=     0.428 Goal=   None    Shift=    0.000
 Gap=     0.568 Goal=   None    Shift=    0.000
 RMSDP=6.62D-06 MaxDP=1.17D-04 DE=-4.24D-06 OVMax= 2.70D-04

 Cycle   7  Pass 1  IDiag  1:
 RMSU=  2.23D-06    CP:  9.46D-01  2.54D+00  1.46D+00  1.71D+00  1.81D+00
                    CP:  1.51D+00
 FoFJK:  IHMeth= 1 ICntrl=     0 DoSepK=T KAlg= 1 I1Cent= 0 FoldK=F
 E= -40.8721589357733     Delta-E=       -0.000000311759 Rises=F Damp=F
 DIIS: error= 1.45D-05 at cycle   7 NSaved=   7.
 NSaved= 7 IEnMin= 7 EnMin= -40.8721589357733     IErMin= 7 ErrMin= 1.45D-05
 ErrMax= 1.45D-05 EMaxC= 1.00D-01 BMatC= 3.55D-08 BMatP= 3.65D-07
 IDIUse=1 WtCom= 1.00D+00 WtEn= 0.00D+00
 Coeff-Com:  0.507D-03-0.203D-02-0.678D-02 0.526D-01-0.934D-01-0.322D+00
 Coeff-Com:  0.137D+01
 Coeff:      0.507D-03-0.203D-02-0.678D-02 0.526D-01-0.934D-01-0.322D+00
 Coeff:      0.137D+01
 Gap=     0.428 Goal=   None    Shift=    0.000
 Gap=     0.568 Goal=   None    Shift=    0.000
 RMSDP=2.56D-06 MaxDP=4.34D-05 DE=-3.12D-07 OVMax= 1.05D-04

 Cycle   8  Pass 1  IDiag  1:
 RMSU=  4.42D-07    CP:  9.46D-01  2.54D+00  1.46D+00  1.71D+00  1.84D+00
                    CP:  1.77D+00  1.60D+00
 FoFJK:  IHMeth= 1 ICntrl=     0 DoSepK=T KAlg= 1 I1Cent= 0 FoldK=F
 E= -40.8721589699338     Delta-E=       -0.000000034160 Rises=F Damp=F
 DIIS: error= 3.85D-06 at cycle   8 NSaved=   8.
 NSaved= 8 IEnMin= 8 EnMin= -40.8721589699338     IErMin= 8 ErrMin= 3.85D-06
 ErrMax= 3.85D-06 EMaxC= 1.00D-01 BMatC= 1.42D-09 BMatP= 3.55D-08
 IDIUse=1 WtCom= 1.00D+00 WtEn= 0.00D+00
 Coeff-Com:  0.874D-05 0.353D-03 0.113D-02-0.123D-01 0.360D-01 0.251D-01
 Coeff-Com: -0.378D+00 0.133D+01
 Coeff:      0.874D-05 0.353D-03 0.113D-02-0.123D-01 0.360D-01 0.251D-01
 Coeff:     -0.378D+00 0.133D+01
 Gap=     0.428 Goal=   None    Shift=    0.000
 Gap=     0.568 Goal=   None    Shift=    0.000
 RMSDP=5.03D-07 MaxDP=1.11D-05 DE=-3.42D-08 OVMax= 2.45D-05

 Cycle   9  Pass 1  IDiag  1:
 RMSU=  1.07D-07    CP:  9.46D-01  2.54D+00  1.46D+00  1.71D+00  1.84D+00
                    CP:  1.79D+00  1.72D+00  1.55D+00
 FoFJK:  IHMeth= 1 ICntrl=     0 DoSepK=T KAlg= 1 I1Cent= 0 FoldK=F
 E= -40.8721589712400     Delta-E=       -0.000000001306 Rises=F Damp=F
 DIIS: error= 1.19D-06 at cycle   9 NSaved=   9.
 NSaved= 9 IEnMin= 9 EnMin= -40.8721589712400     IErMin= 9 ErrMin= 1.19D-06
 ErrMax= 1.19D-06 EMaxC= 1.00D-01 BMatC= 9.80D-11 BMatP= 1.42D-09
 IDIUse=1 WtCom= 1.00D+00 WtEn= 0.00D+00
 Coeff-Com: -0.345D-04-0.690D-04-0.293D-03 0.373D-02-0.134D-01 0.352D-02
 Coeff-Com:  0.111D+00-0.589D+00 0.148D+01
 Coeff:     -0.345D-04-0.690D-04-0.293D-03 0.373D-02-0.134D-01 0.352D-02
 Coeff:      0.111D+00-0.589D+00 0.148D+01
 Gap=     0.428 Goal=   None    Shift=    0.000
 Gap=     0.568 Goal=   None    Shift=    0.000
 RMSDP=1.48D-07 MaxDP=3.41D-06 DE=-1.31D-09 OVMax= 1.03D-05

 Cycle  10  Pass 1  IDiag  1:
 RMSU=  4.79D-08    CP:  9.46D-01  2.54D+00  1.46D+00  1.71D+00  1.84D+00
                    CP:  1.79D+00  1.73D+00  1.66D+00  1.72D+00
 FoFJK:  IHMeth= 1 ICntrl=     0 DoSepK=T KAlg= 1 I1Cent= 0 FoldK=F
 E= -40.8721589713663     Delta-E=       -0.000000000126 Rises=F Damp=F
 DIIS: error= 4.25D-07 at cycle  10 NSaved=  10.
 NSaved=10 IEnMin=10 EnMin= -40.8721589713663     IErMin=10 ErrMin= 4.25D-07
 ErrMax= 4.25D-07 EMaxC= 1.00D-01 BMatC= 1.27D-11 BMatP= 9.80D-11
 IDIUse=1 WtCom= 1.00D+00 WtEn= 0.00D+00
 Coeff-Com:  0.206D-04 0.104D-04 0.834D-04-0.110D-02 0.484D-02-0.512D-02
 Coeff-Com: -0.307D-01 0.220D+00-0.864D+00 0.168D+01
 Coeff:      0.206D-04 0.104D-04 0.834D-04-0.110D-02 0.484D-02-0.512D-02
 Coeff:     -0.307D-01 0.220D+00-0.864D+00 0.168D+01
 Gap=     0.428 Goal=   None    Shift=    0.000
 Gap=     0.568 Goal=   None    Shift=    0.000
 RMSDP=6.38D-08 MaxDP=1.58D-06 DE=-1.26D-10 OVMax= 3.84D-06

 Cycle  11  Pass 1  IDiag  1:
 RMSU=  1.40D-08    CP:  9.46D-01  2.54D+00  1.46D+00  1.71D+00  1.84D+00
                    CP:  1.79D+00  1.74D+00  1.66D+00  2.00D+00  1.71D+00
 FoFJK:  IHMeth= 1 ICntrl=     0 DoSepK=T KAlg= 1 I1Cent= 0 FoldK=F
 E= -40.8721589713845     Delta-E=       -0.000000000018 Rises=F Damp=F
 DIIS: error= 1.03D-07 at cycle  11 NSaved=  11.
 NSaved=11 IEnMin=11 EnMin= -40.8721589713845     IErMin=11 ErrMin= 1.03D-07
 ErrMax= 1.03D-07 EMaxC= 1.00D-01 BMatC= 7.59D-13 BMatP= 1.27D-11
 IDIUse=1 WtCom= 1.00D+00 WtEn= 0.00D+00
 Coeff-Com: -0.237D-05 0.501D-05 0.224D-05-0.891D-04 0.148D-03 0.120D-02
 Coeff-Com: -0.578D-02 0.136D-01 0.613D-01-0.408D+00 0.134D+01
 Coeff:     -0.237D-05 0.501D-05 0.224D-05-0.891D-04 0.148D-03 0.120D-02
 Coeff:     -0.578D-02 0.136D-01 0.613D-01-0.408D+00 0.134D+01
 Gap=     0.428 Goal=   None    Shift=    0.000
 Gap=     0.568 Goal=   None    Shift=    0.000
 RMSDP=1.27D-08 MaxDP=3.65D-07 DE=-1.82D-11 OVMax= 7.77D-07

 Cycle  12  Pass 1  IDiag  1:
 RMSU=  2.13D-09    CP:  9.46D-01  2.54D+00  1.46D+00  1.71D+00  1.84D+00
                    CP:  1.79D+00  1.74D+00  1.65D+00  2.02D+00  1.83D+00
                    CP:  1.44D+00
 FoFJK:  IHMeth= 1 ICntrl=     0 DoSepK=T KAlg= 1 I1Cent= 0 FoldK=F
 E= -40.8721589713843     Delta-E=        0.000000000000 Rises=F Damp=F
 DIIS: error= 1.30D-08 at cycle  12 NSaved=  12.
 NSaved=12 IEnMin=11 EnMin= -40.8721589713845     IErMin=12 ErrMin= 1.30D-08
 ErrMax= 1.30D-08 EMaxC= 1.00D-01 BMatC= 1.86D-14 BMatP= 7.59D-13
 IDIUse=1 WtCom= 1.00D+00 WtEn= 0.00D+00
 Coeff-Com: -0.108D-06-0.857D-06-0.478D-06 0.328D-04-0.117D-03-0.178D-03
 Coeff-Com:  0.210D-02-0.895D-02 0.117D-01 0.454D-01-0.348D+00 0.130D+01
 Coeff:     -0.108D-06-0.857D-06-0.478D-06 0.328D-04-0.117D-03-0.178D-03
 Coeff:      0.210D-02-0.895D-02 0.117D-01 0.454D-01-0.348D+00 0.130D+01
 Gap=     0.428 Goal=   None    Shift=    0.000
 Gap=     0.568 Goal=   None    Shift=    0.000
 RMSDP=1.86D-09 MaxDP=4.93D-08 DE= 1.99D-13 OVMax= 9.79D-08

 SCF Done:  E(ULC-B+HF-LYP) =  -40.8721589714     A.U. after   12 cycles
             Convg  =    0.1859D-08             -V/T =  2.0042
 <Sx>= 0.0000 <Sy>= 0.0000 <Sz>= 0.5000 <S**2>= 0.7547 S= 0.5023
 <L.S>= 0.000000000000E+00
 KE= 4.069973772183D+01 PE=-1.225080474683D+02 EE= 2.671368433638D+01
 Annihilation of the first spin contaminant:
 S**2 before annihilation     0.7547,   after     0.7500
 Leave Link  502 at Wed Nov  3 01:43:02 2010, MaxMem=  786432000 cpu:     280.7
 (Enter /share/apps/G09A02/g09/l601.exe)
 Copying SCF densities to generalized density rwf, IOpCl= 1 IROHF=0.

 **********************************************************************

            Population analysis using the SCF density.

 **********************************************************************

 Alpha  occ. eigenvalues --  -10.14692  -0.85840  -0.56897  -0.56021  -0.56021
 Alpha  occ. eigenvalues --   -0.35805
 Alpha virt. eigenvalues --    0.06952   0.09054   0.09054   0.11485   0.19284
 Alpha virt. eigenvalues --    0.23210   0.23210   0.25134   0.37066   0.37066
 Alpha virt. eigenvalues --    0.40189   0.40189   0.40936   0.48762   0.59395
 Alpha virt. eigenvalues --    0.63448   0.63448   0.68070   0.68070   0.69118
 Alpha virt. eigenvalues --    0.77110   0.83114   0.85093   0.85093   0.94670
 Alpha virt. eigenvalues --    1.05359   1.05359   1.15149   1.16186   1.16186
 Alpha virt. eigenvalues --    1.28425   1.28425   1.40969   1.48510   1.48510
 Alpha virt. eigenvalues --    1.50914   1.62340   1.78862   1.78862   2.16252
 Alpha virt. eigenvalues --    2.16252   2.19955   2.51968   2.54840   2.75919
 Alpha virt. eigenvalues --    2.79945   2.79945   2.95029   3.05509   3.13492
 Alpha virt. eigenvalues --    3.13492   3.20040   3.22467   3.22467   3.63611
 Alpha virt. eigenvalues --    3.63611   3.73867   3.73867   4.01436   4.11257
 Alpha virt. eigenvalues --    4.27510   4.27510   4.35548   4.35548   4.44759
 Alpha virt. eigenvalues --    4.44759   4.56777   4.95641   5.38423   5.73945
 Alpha virt. eigenvalues --    5.73945   5.85192   7.15203   7.15204   7.40064
 Alpha virt. eigenvalues --    7.74223   7.74223  24.22776
  Beta  occ. eigenvalues --  -10.13265  -0.81340  -0.55217  -0.54970  -0.54970
  Beta virt. eigenvalues --    0.01819   0.07314   0.08964   0.08964   0.11999
  Beta virt. eigenvalues --    0.21389   0.23477   0.23478   0.26339   0.38148
  Beta virt. eigenvalues --    0.38148   0.40215   0.40215   0.42265   0.49966
  Beta virt. eigenvalues --    0.61353   0.64054   0.64054   0.68713   0.68713
  Beta virt. eigenvalues --    0.70086   0.78365   0.85009   0.85386   0.85386
  Beta virt. eigenvalues --    0.94631   1.05980   1.05980   1.15874   1.16252
  Beta virt. eigenvalues --    1.16252   1.28442   1.28442   1.43561   1.49119
  Beta virt. eigenvalues --    1.49119   1.51283   1.63518   1.83595   1.83595
  Beta virt. eigenvalues --    2.17286   2.17286   2.23730   2.52775   2.54801
  Beta virt. eigenvalues --    2.76611   2.81510   2.81510   2.99865   3.05912
  Beta virt. eigenvalues --    3.16584   3.16584   3.24430   3.25331   3.25331
  Beta virt. eigenvalues --    3.64335   3.64335   3.74789   3.74789   4.01887
  Beta virt. eigenvalues --    4.12106   4.27157   4.27157   4.36247   4.36247
  Beta virt. eigenvalues --    4.45143   4.45143   4.57721   4.95813   5.39359
  Beta virt. eigenvalues --    5.74550   5.74550   5.86015   7.21492   7.21493
  Beta virt. eigenvalues --    7.47940   7.75865   7.75865  24.24647
          Condensed to atoms (all electrons):
              1          2          3          4          5          6
     1  C    5.421320  -0.017340   0.404057   0.404057   0.404057  -0.030380
     2  H   -0.017340   0.566446  -0.002036  -0.002036  -0.002036   0.428565
     3  H    0.404057  -0.002036   0.436537  -0.018731  -0.018731  -0.000721
     4  H    0.404057  -0.002036  -0.018731   0.436533  -0.018730  -0.000721
     5  H    0.404057  -0.002036  -0.018731  -0.018730   0.436533  -0.000721
     6  H   -0.030380   0.428565  -0.000721  -0.000721  -0.000721   0.645523
 Mulliken atomic charges:
              1
     1  C   -0.585771
     2  H    0.028437
     3  H    0.199625
     4  H    0.199627
     5  H    0.199627
     6  H   -0.041544
 Sum of Mulliken atomic charges =   0.00000
 Mulliken charges with hydrogens summed into heavy atoms:
              1
     1  C    0.000000
 Sum of Mulliken charges with hydrogens summed into heavy atoms =   0.00000
          Atomic-Atomic Spin Densities.
              1          2          3          4          5          6
     1  C    1.066369  -0.015979   0.004605   0.004605   0.004605  -0.031038
     2  H   -0.015979  -0.043683   0.000170   0.000170   0.000170   0.014569
     3  H    0.004605   0.000170  -0.032820   0.002638   0.002638  -0.000181
     4  H    0.004605   0.000170   0.002638  -0.032820   0.002638  -0.000181
     5  H    0.004605   0.000170   0.002638   0.002638  -0.032820  -0.000181
     6  H   -0.031038   0.014569  -0.000181  -0.000181  -0.000181   0.097282
 Mulliken atomic spin densities:
              1
     1  C    1.033166
     2  H   -0.044583
     3  H   -0.022950
     4  H   -0.022951
     5  H   -0.022951
     6  H    0.080269
 Sum of Mulliken atomic spin densities =   1.00000
 Electronic spatial extent (au):  <R**2>=             78.7429
 Charge=              0.0000 electrons
 Dipole moment (field-independent basis, Debye):
    X=              0.0000    Y=              0.0000    Z=             -0.2272  Tot=              0.2272
 Quadrupole moment (field-independent basis, Debye-Ang):
   XX=             -9.3980   YY=             -9.3980   ZZ=            -11.4665
   XY=              0.0000   XZ=              0.0000   YZ=              0.0000
 Traceless Quadrupole moment (field-independent basis, Debye-Ang):
   XX=              0.6895   YY=              0.6895   ZZ=             -1.3790
   XY=              0.0000   XZ=              0.0000   YZ=              0.0000
 Octapole moment (field-independent basis, Debye-Ang**2):
  XXX=              0.9862  YYY=              0.0000  ZZZ=            -14.1352  XYY=             -0.9862
  XXY=              0.0000  XXZ=             -5.2759  XZZ=              0.0000  YZZ=              0.0000
  YYZ=             -5.2759  XYZ=              0.0000
 Hexadecapole moment (field-independent basis, Debye-Ang**3):
 XXXX=            -17.4025 YYYY=            -17.4025 ZZZZ=            -82.8771 XXXY=              0.0000
 XXXZ=             -0.0702 YYYX=              0.0000 YYYZ=              0.0000 ZZZX=              0.0000
 ZZZY=              0.0000 XXYY=             -5.8008 XXZZ=            -19.1165 YYZZ=            -19.1165
 XXYZ=              0.0000 YYXZ=              0.0703 ZZXY=              0.0000
 N-N= 1.422246643872D+01 E-N=-1.805958484655D+02  KE= 6.042325030456D+01
                          Isotropic Fermi Contact Couplings
        Atom                 a.u.       MegaHertz       Gauss      10(-4) cm-1
     1  C(13)              0.03616      40.64741      14.50401      13.55852
     2  H(1)              -0.00886     -39.58209     -14.12387     -13.20316
     3  H(1)              -0.01298     -58.03431     -20.70808     -19.35816
     4  H(1)              -0.01298     -58.03460     -20.70819     -19.35826
     5  H(1)              -0.01298     -58.03460     -20.70819     -19.35826
     6  H(1)               0.02933     131.11672      46.78570      43.73583
 --------------------------------------------------------
       Center         ----  Spin Dipole Couplings  ----
                      3XX-RR        3YY-RR        3ZZ-RR
 --------------------------------------------------------
     1   Atom       -0.592738     -0.592739      1.185477
     2   Atom       -0.036634     -0.036634      0.073268
     3   Atom        0.074523     -0.074526      0.000002
     4   Atom       -0.037263      0.037261      0.000002
     5   Atom       -0.037263      0.037261      0.000002
     6   Atom       -0.004826     -0.004826      0.009652
 --------------------------------------------------------
                        XY            XZ            YZ
 --------------------------------------------------------
     1   Atom        0.000000     -0.000001      0.000000
     2   Atom        0.000000      0.000000      0.000000
     3   Atom        0.000000     -0.004718      0.000000
     4   Atom        0.064540      0.002359      0.004086
     5   Atom       -0.064540      0.002359     -0.004086
     6   Atom        0.000000      0.000000      0.000000
 --------------------------------------------------------


 ---------------------------------------------------------------------------------
              Anisotropic Spin Dipole Couplings in Principal Axis System
 ---------------------------------------------------------------------------------

       Atom             a.u.   MegaHertz   Gauss  10(-4) cm-1        Axes

              Baa    -0.5927   -79.540   -28.382   -26.532  0.0000  1.0000  0.0000
     1 C(13)  Bbb    -0.5927   -79.540   -28.382   -26.532  1.0000  0.0000  0.0000
              Bcc     1.1855   159.080    56.764    53.063  0.0000  0.0000  1.0000
 
              Baa    -0.0366   -19.546    -6.975    -6.520  0.0000  1.0000  0.0000
     2 H(1)   Bbb    -0.0366   -19.546    -6.975    -6.520  1.0000  0.0000  0.0000
              Bcc     0.0733    39.092    13.949    13.040  0.0000  0.0000  1.0000
 
              Baa    -0.0745   -39.763   -14.189   -13.264  0.0000  1.0000  0.0000
     3 H(1)   Bbb    -0.0003    -0.158    -0.056    -0.053  0.0629  0.0000  0.9980
              Bcc     0.0748    39.921    14.245    13.316  0.9980  0.0000 -0.0629
 
              Baa    -0.0745   -39.763   -14.189   -13.264  0.8660 -0.5000  0.0000
     4 H(1)   Bbb    -0.0003    -0.158    -0.056    -0.053 -0.0315 -0.0545  0.9980
              Bcc     0.0748    39.921    14.245    13.316  0.4990  0.8643  0.0629
 
              Baa    -0.0745   -39.763   -14.189   -13.264  0.8660  0.5000  0.0000
     5 H(1)   Bbb    -0.0003    -0.158    -0.056    -0.053 -0.0315  0.0545  0.9980
              Bcc     0.0748    39.921    14.245    13.316 -0.4990  0.8643 -0.0629
 
              Baa    -0.0048    -2.575    -0.919    -0.859  0.0000  1.0000  0.0000
     6 H(1)   Bbb    -0.0048    -2.575    -0.919    -0.859  1.0000  0.0000  0.0000
              Bcc     0.0097     5.150     1.838     1.718  0.0000  0.0000  1.0000
 

 ---------------------------------------------------------------------------------

 No NMR shielding tensors so no spin-rotation constants.
 Leave Link  601 at Wed Nov  3 01:43:03 2010, MaxMem=  786432000 cpu:       3.9
 (Enter /share/apps/G09A02/g09/l9999.exe)
 1\1\GINC-COMPUTE-0-7\SP\ULC-BLYP\6-311+G(3df,2p)\C1H5(2)\WENXINZY\03-N
 ov-2010\0\\#p lc-blyp/6-311+g(3df,2p) nosymm scf=tight\\13 H2+CH3\\0,2
 \C\H,1,2.0704812\H,1,1.0794388,2,92.4185564\H,1,1.0794388,2,92.4185564
 ,3,120.,0\H,1,1.0794388,2,92.4185564,3,-120.,0\H,2,0.7521638,1,180.,3,
 0.,0\\Version=EM64L-G09RevA.02\HF=-40.872159\S2=0.754659\S2-1=0.\S2A=0
 .750015\RMSD=1.859e-09\Dipole=-0.0000009,0.,-0.0893943\Quadrupole=0.51
 26315,0.5126337,-1.0252652,0.,-0.000001,0.\PG=C03V [C3(H1H1C1),3SGV(H1
 )]\\@


 NOTHING PUZZLES ME MORE THAN TIME AND SPACE; AND YET NOTHING TROUBLES ME LESS
                                                          -- CHARLES LAMB (1810)
 Job cpu time:  0 days  0 hours  4 minutes 55.0 seconds.
 File lengths (MBytes):  RWF=      9 Int=      0 D2E=      0 Chk=      1 Scr=      1
 Normal termination of Gaussian 09 at Wed Nov  3 01:43:03 2010.
