 Entering Gaussian System, Link 0=/share/apps/G09A02/g09/g09
 Input=./.script12553/Job_H_CH4_28.com
 Output=./.script12553/Job_H_CH4_28.log
 Initial command:
 /share/apps/G09A02/g09/l1.exe /state/partition1/wenxinzy/scratch/Gau-15428.inp -scrdir=/state/partition1/wenxinzy/scratch/
 Default is to use a total of   8 processors:
                                8 via shared-memory
                                1 via Linda
 Entering Link 1 = /share/apps/G09A02/g09/l1.exe PID=     15429.
  
 Copyright (c) 1988,1990,1992,1993,1995,1998,2003,2009, Gaussian, Inc.
                  All Rights Reserved.
  
 This is part of the Gaussian(R) 09 program.  It is based on
 the Gaussian(R) 03 system (copyright 2003, Gaussian, Inc.),
 the Gaussian(R) 98 system (copyright 1998, Gaussian, Inc.),
 the Gaussian(R) 94 system (copyright 1995, Gaussian, Inc.),
 the Gaussian 92(TM) system (copyright 1992, Gaussian, Inc.),
 the Gaussian 90(TM) system (copyright 1990, Gaussian, Inc.),
 the Gaussian 88(TM) system (copyright 1988, Gaussian, Inc.),
 the Gaussian 86(TM) system (copyright 1986, Carnegie Mellon
 University), and the Gaussian 82(TM) system (copyright 1983,
 Carnegie Mellon University). Gaussian is a federally registered
 trademark of Gaussian, Inc.
  
 This software contains proprietary and confidential information,
 including trade secrets, belonging to Gaussian, Inc.
  
 This software is provided under written license and may be
 used, copied, transmitted, or stored only in accord with that
 written license.
  
 The following legend is applicable only to US Government
 contracts under FAR:
  
                    RESTRICTED RIGHTS LEGEND
  
 Use, reproduction and disclosure by the US Government is
 subject to restrictions as set forth in subparagraphs (a)
 and (c) of the Commercial Computer Software - Restricted
 Rights clause in FAR 52.227-19.
  
 Gaussian, Inc.
 340 Quinnipiac St., Bldg. 40, Wallingford CT 06492
  
  
 ---------------------------------------------------------------
 Warning -- This program may not be used in any manner that
 competes with the business of Gaussian, Inc. or will provide
 assistance to any competitor of Gaussian, Inc.  The licensee
 of this program is prohibited from giving any competitor of
 Gaussian, Inc. access to this program.  By using this program,
 the user acknowledges that Gaussian, Inc. is engaged in the
 business of creating and licensing software in the field of
 computational chemistry and represents and warrants to the
 licensee that it is not a competitor of Gaussian, Inc. and that
 it will not use this program in any manner prohibited above.
 ---------------------------------------------------------------
  

 Cite this work as:
 Gaussian 09, Revision A.02,
 M. J. Frisch, G. W. Trucks, H. B. Schlegel, G. E. Scuseria, 
 M. A. Robb, J. R. Cheeseman, G. Scalmani, V. Barone, B. Mennucci, 
 G. A. Petersson, H. Nakatsuji, M. Caricato, X. Li, H. P. Hratchian, 
 A. F. Izmaylov, J. Bloino, G. Zheng, J. L. Sonnenberg, M. Hada, 
 M. Ehara, K. Toyota, R. Fukuda, J. Hasegawa, M. Ishida, T. Nakajima, 
 Y. Honda, O. Kitao, H. Nakai, T. Vreven, J. A. Montgomery, Jr., 
 J. E. Peralta, F. Ogliaro, M. Bearpark, J. J. Heyd, E. Brothers, 
 K. N. Kudin, V. N. Staroverov, R. Kobayashi, J. Normand, 
 K. Raghavachari, A. Rendell, J. C. Burant, S. S. Iyengar, J. Tomasi, 
 M. Cossi, N. Rega, J. M. Millam, M. Klene, J. E. Knox, J. B. Cross, 
 V. Bakken, C. Adamo, J. Jaramillo, R. Gomperts, R. E. Stratmann, 
 O. Yazyev, A. J. Austin, R. Cammi, C. Pomelli, J. W. Ochterski, 
 R. L. Martin, K. Morokuma, V. G. Zakrzewski, G. A. Voth, 
 P. Salvador, J. J. Dannenberg, S. Dapprich, A. D. Daniels, 
 O. Farkas, J. B. Foresman, J. V. Ortiz, J. Cioslowski, 
 and D. J. Fox, Gaussian, Inc., Wallingford CT, 2009.
 
 ******************************************
 Gaussian 09:  EM64L-G09RevA.02 11-Jun-2009
                 3-Nov-2010 
 ******************************************
 %chk=/state/partition1/wenxinzy/scratch/H_CH4_28.chk
 %nproc=8
 Will use up to    8 processors via shared memory.
 %mem=6000mb
 -------------------------------------------
 #p lc-blyp/6-311+g(3df,2p) nosymm scf=tight
 -------------------------------------------
 1/38=1/1;
 2/12=2,15=1,17=6,18=5,40=1/2;
 3/5=4,6=6,7=216,11=2,16=1,25=1,30=1,74=1000402/1,2,3;
 4//1;
 5/5=2,32=2,38=5/2;
 6/7=2,8=2,9=2,10=2,28=1/1;
 99/5=1,9=1/99;
 Leave Link    1 at Wed Nov  3 01:23:50 2010, MaxMem=  786432000 cpu:       0.4
 (Enter /share/apps/G09A02/g09/l101.exe)
 --------
 29 H_CH4
 --------
 Symbolic Z-matrix:
 Charge =  0 Multiplicity = 2
 C
 H1                   C    R1
 H2                   C    R2       H1   A1
 H3                   C    R2       H1   A1       H2    120.     0
 H4                   C    R2       H1   A1       H2   -120.     0
 H5                   H1   R3       C     180.     H2    0.       0
       Variables:
  R1                    1.08944                  
  R2                    1.08935                  
  A1                  109.46958                  
  R3                    2.41274                  
 
 NAtoms=      6 NQM=      6 NQMF=      0 NMic=      0 NMicF=      0 NTot=      6.
                    Isotopes and Nuclear Properties:
 (Nuclear quadrupole moments (NQMom) in fm**2, nuclear magnetic moments (NMagM)
  in nuclear magnetons)

  Atom         1           2           3           4           5           6
 IAtWgt=          12           1           1           1           1           1
 AtmWgt=  12.0000000   1.0078250   1.0078250   1.0078250   1.0078250   1.0078250
 NucSpn=           0           1           1           1           1           1
 AtZEff=   0.0000000   0.0000000   0.0000000   0.0000000   0.0000000   0.0000000
 NQMom=    0.0000000   0.0000000   0.0000000   0.0000000   0.0000000   0.0000000
 NMagM=    0.0000000   2.7928460   2.7928460   2.7928460   2.7928460   2.7928460
 Leave Link  101 at Wed Nov  3 01:23:50 2010, MaxMem=  786432000 cpu:       1.0
 (Enter /share/apps/G09A02/g09/l202.exe)
                          Input orientation:                          
 ---------------------------------------------------------------------
 Center     Atomic      Atomic             Coordinates (Angstroms)
 Number     Number       Type             X           Y           Z
 ---------------------------------------------------------------------
      1          6           0        0.000000    0.000000    0.000000
      2          1           0        0.000000    0.000000    1.089436
      3          1           0        1.027058    0.000000   -0.363087
      4          1           0       -0.513529   -0.889458   -0.363087
      5          1           0       -0.513529    0.889458   -0.363087
      6          1           0        0.000000    0.000000    3.502175
 ---------------------------------------------------------------------
                    Distance matrix (angstroms):
                    1          2          3          4          5
     1  C    0.000000
     2  H    1.089436   0.000000
     3  H    1.089348   1.778952   0.000000
     4  H    1.089348   1.778952   1.778916   0.000000
     5  H    1.089348   1.778952   1.778916   1.778916   0.000000
     6  H    3.502175   2.412738   3.999387   3.999387   3.999387
                    6
     6  H    0.000000
 Symmetry turned off by external request.
 Stoichiometry    CH5(2)
 Framework group  C3V[C3(HHC),3SGV(H)]
 Deg. of freedom     4
 Full point group                 C3V     NOp   6
 Rotational constants (GHZ):    158.4605881     34.1025405     34.1025405
 Leave Link  202 at Wed Nov  3 01:23:50 2010, MaxMem=  786432000 cpu:       0.1
 (Enter /share/apps/G09A02/g09/l301.exe)
 Standard basis: 6-311+G(3df,2p) (5D, 7F)
 Ernie: Thresh=  0.10000D-02 Tol=  0.10000D-05 Strict=F.
 Integral buffers will be    131072 words long.
 Raffenetti 2 integral format.
 Two-electron integral symmetry is turned off.
    84 basis functions,   113 primitive gaussians,    90 cartesian basis functions
     6 alpha electrons        5 beta electrons
       nuclear repulsion energy        14.9660256851 Hartrees.
 IExCor=10402 DFT=T Ex=LC-B+HF Corr=LYP ExCW=0 ScaHFX=  1.000000
 ScaDFX=  1.000000  1.000000  1.000000  1.000000 ScalE2=  1.000000  1.000000
 IRadAn=      0 IRanWt=     -1 IRanGd=            0 ICorTp=0
  HFx wShort=  0.000000 wLong=  0.470000 cFull=  0.000000 cShort=  0.000000 cLong=  1.000000
  DFx wShort=  0.000000 wLong=  0.470000 cFull=  0.000000 cShort=  0.000000 cLong=  1.000000
 NAtoms=    6 NActive=    6 NUniq=    6 SFac= 7.50D-01 NAtFMM=   80 NAOKFM=F Big=F
 Leave Link  301 at Wed Nov  3 01:23:50 2010, MaxMem=  786432000 cpu:       0.7
 (Enter /share/apps/G09A02/g09/l302.exe)
 NPDir=0 NMtPBC=     1 NCelOv=     1 NCel=       1 NClECP=     1 NCelD=      1
         NCelK=      1 NCelE2=     1 NClLst=     1 CellRange=     0.0.
 One-electron integrals computed using PRISM.
 NBasis=    84 RedAO= T  NBF=    84
 NBsUse=    84 1.00D-06 NBFU=    84
 Precomputing XC quadrature grid using
 IXCGrd= 2 IRadAn=           0 IRanWt=          -1 IRanGd=           0 AccXCQ= 1.00D-10.
 NRdTot=     384 NPtTot=       48740 NUsed=       51519 NTot=       51551
 NSgBfM=    90    90    90    90    90 NAtAll=     6     6.
 Leave Link  302 at Wed Nov  3 01:23:50 2010, MaxMem=  786432000 cpu:       2.5
 (Enter /share/apps/G09A02/g09/l303.exe)
 DipDrv:  MaxL=1.
 Leave Link  303 at Wed Nov  3 01:23:51 2010, MaxMem=  786432000 cpu:       1.2
 (Enter /share/apps/G09A02/g09/l401.exe)
 Harris functional with IExCor=10402 diagonalized for initial guess.
 ExpMin= 4.38D-02 ExpMax= 4.56D+03 ExpMxC= 6.82D+02 IAcc=2 IRadAn=         0 AccDes= 0.00D+00
 HarFok:  IExCor=10402 AccDes= 0.00D+00 IRadAn=         0 IDoV= 1
 ScaDFX=  1.000000  1.000000  1.000000  1.000000
 FoFCou: FMM=F IPFlag=           0 FMFlag=      100000 FMFlg1=           0
         NFxFlg=           0 DoJE=T BraDBF=F KetDBF=T FulRan=T
         Omega=  0.000000  0.000000  1.000000  0.000000  0.000000 ICntrl=     500 IOpCl=  0
         NMat0=    1 NMatS0=    1 NMatT0=    0 NMatD0=    1 NMtDS0=    0 NMtDT0=    0
         I1Cent=           4 NGrid=           0.
 Symmetry not used in FoFCou.
 Harris En= -38.5636837428398    
 Initial guess <Sx>= 0.0000 <Sy>= 0.0000 <Sz>= 0.5000 <S**2>= 0.7500 S= 0.5000
 Leave Link  401 at Wed Nov  3 01:23:51 2010, MaxMem=  786432000 cpu:       3.7
 (Enter /share/apps/G09A02/g09/l502.exe)
 UHF open shell SCF:
 Requested convergence on RMS density matrix=1.00D-08 within 128 cycles.
 Requested convergence on MAX density matrix=1.00D-06.
 Requested convergence on             energy=1.00D-06.
 No special actions if energy rises.
 Using DIIS extrapolation, IDIIS=  1040.
 Two-electron integral symmetry not used.
        51452 words used for storage of precomputed grid.
 IEnd=       95170 IEndB=       95170 NGot=   786432000 MDV=   786361661
 LenX=   786361661 LenY=   786353120
 Fock matrices will be formed incrementally for  20 cycles.

 Cycle   1  Pass 1  IDiag  1:
 FoFJK:  IHMeth= 1 ICntrl=     0 DoSepK=T KAlg= 1 I1Cent= 0 FoldK=F
 FoFCou: FMM=F IPFlag=           0 FMFlag=      100000 FMFlg1=           0
         NFxFlg=           0 DoJE=T BraDBF=F KetDBF=F FulRan=T
         Omega=  0.000000  0.000000  1.000000  0.000000  0.000000 ICntrl=     500 IOpCl=  0
         NMat0=    1 NMatS0=    1 NMatT0=    0 NMatD0=    1 NMtDS0=    0 NMtDT0=    0
         I1Cent=           0 NGrid=           0.
 Symmetry not used in FoFCou.
 E= -40.7978749992637    
 DIIS: error= 3.01D-02 at cycle   1 NSaved=   1.
 NSaved= 1 IEnMin= 1 EnMin= -40.7978749992637     IErMin= 1 ErrMin= 3.01D-02
 ErrMax= 3.01D-02 EMaxC= 1.00D-01 BMatC= 2.59D-01 BMatP= 2.59D-01
 IDIUse=3 WtCom= 6.99D-01 WtEn= 3.01D-01
 Coeff-Com:  0.100D+01
 Coeff-En:   0.100D+01
 Coeff:      0.100D+01
 Gap=     0.512 Goal=   None    Shift=    0.000
 Gap=     0.349 Goal=   None    Shift=    0.000
 GapD=    0.349 DampG=1.000 DampE=0.500 DampFc=0.5000 IDamp=-1.
 Damping current iteration by 5.00D-01
 RMSDP=4.95D-03 MaxDP=1.88D-01              OVMax= 1.56D-01

 Cycle   2  Pass 1  IDiag  1:
 RMSU=  1.90D-03    CP:  8.96D-01
 FoFJK:  IHMeth= 1 ICntrl=     0 DoSepK=T KAlg= 1 I1Cent= 0 FoldK=F
 E= -40.8404145238643     Delta-E=       -0.042539524601 Rises=F Damp=T
 DIIS: error= 1.03D-02 at cycle   2 NSaved=   2.
 NSaved= 2 IEnMin= 2 EnMin= -40.8404145238643     IErMin= 2 ErrMin= 1.03D-02
 ErrMax= 1.03D-02 EMaxC= 1.00D-01 BMatC= 2.19D-02 BMatP= 2.59D-01
 IDIUse=3 WtCom= 8.97D-01 WtEn= 1.03D-01
 Coeff-Com: -0.220D+00 0.122D+01
 Coeff-En:   0.000D+00 0.100D+01
 Coeff:     -0.197D+00 0.120D+01
 Gap=     0.556 Goal=   None    Shift=    0.000
 Gap=     0.471 Goal=   None    Shift=    0.000
 RMSDP=2.71D-03 MaxDP=1.17D-01 DE=-4.25D-02 OVMax= 4.74D-02

 Cycle   3  Pass 1  IDiag  1:
 RMSU=  9.20D-04    CP:  8.01D-01  2.02D+00
 FoFJK:  IHMeth= 1 ICntrl=     0 DoSepK=T KAlg= 1 I1Cent= 0 FoldK=F
 E= -40.8826041939205     Delta-E=       -0.042189670056 Rises=F Damp=F
 DIIS: error= 2.89D-03 at cycle   3 NSaved=   3.
 NSaved= 3 IEnMin= 3 EnMin= -40.8826041939205     IErMin= 3 ErrMin= 2.89D-03
 ErrMax= 2.89D-03 EMaxC= 1.00D-01 BMatC= 9.68D-04 BMatP= 2.19D-02
 IDIUse=3 WtCom= 9.71D-01 WtEn= 2.89D-02
 Coeff-Com:  0.377D-01-0.281D+00 0.124D+01
 Coeff-En:   0.000D+00 0.000D+00 0.100D+01
 Coeff:      0.366D-01-0.272D+00 0.124D+01
 Gap=     0.514 Goal=   None    Shift=    0.000
 Gap=     0.502 Goal=   None    Shift=    0.000
 RMSDP=6.54D-04 MaxDP=2.98D-02 DE=-4.22D-02 OVMax= 3.67D-02

 Cycle   4  Pass 1  IDiag  1:
 RMSU=  3.08D-04    CP:  7.82D-01  2.21D+00  1.30D+00
 FoFJK:  IHMeth= 1 ICntrl=     0 DoSepK=T KAlg= 1 I1Cent= 0 FoldK=F
 E= -40.8835623551579     Delta-E=       -0.000958161237 Rises=F Damp=F
 DIIS: error= 3.92D-04 at cycle   4 NSaved=   4.
 NSaved= 4 IEnMin= 4 EnMin= -40.8835623551579     IErMin= 4 ErrMin= 3.92D-04
 ErrMax= 3.92D-04 EMaxC= 1.00D-01 BMatC= 2.55D-05 BMatP= 9.68D-04
 IDIUse=3 WtCom= 9.96D-01 WtEn= 3.92D-03
 Coeff-Com: -0.450D-02-0.156D-02-0.115D+00 0.112D+01
 Coeff-En:   0.000D+00 0.000D+00 0.000D+00 0.100D+01
 Coeff:     -0.448D-02-0.155D-02-0.114D+00 0.112D+01
 Gap=     0.512 Goal=   None    Shift=    0.000
 Gap=     0.502 Goal=   None    Shift=    0.000
 RMSDP=9.57D-05 MaxDP=5.00D-03 DE=-9.58D-04 OVMax= 5.97D-03

 Cycle   5  Pass 1  IDiag  1:
 RMSU=  3.24D-05    CP:  7.80D-01  2.23D+00  1.33D+00  1.19D+00
 FoFJK:  IHMeth= 1 ICntrl=     0 DoSepK=T KAlg= 1 I1Cent= 0 FoldK=F
 E= -40.8835854497717     Delta-E=       -0.000023094614 Rises=F Damp=F
 DIIS: error= 8.89D-05 at cycle   5 NSaved=   5.
 NSaved= 5 IEnMin= 5 EnMin= -40.8835854497717     IErMin= 5 ErrMin= 8.89D-05
 ErrMax= 8.89D-05 EMaxC= 1.00D-01 BMatC= 3.73D-07 BMatP= 2.55D-05
 IDIUse=1 WtCom= 1.00D+00 WtEn= 0.00D+00
 Coeff-Com:  0.720D-03 0.344D-02 0.151D-01-0.280D+00 0.126D+01
 Coeff:      0.720D-03 0.344D-02 0.151D-01-0.280D+00 0.126D+01
 Gap=     0.512 Goal=   None    Shift=    0.000
 Gap=     0.502 Goal=   None    Shift=    0.000
 RMSDP=1.62D-05 MaxDP=6.24D-04 DE=-2.31D-05 OVMax= 6.90D-04

 Cycle   6  Pass 1  IDiag  1:
 RMSU=  2.07D-06    CP:  7.80D-01  2.23D+00  1.33D+00  1.20D+00  1.44D+00
 FoFJK:  IHMeth= 1 ICntrl=     0 DoSepK=T KAlg= 1 I1Cent= 0 FoldK=F
 E= -40.8835858597123     Delta-E=       -0.000000409941 Rises=F Damp=F
 DIIS: error= 2.11D-05 at cycle   6 NSaved=   6.
 NSaved= 6 IEnMin= 6 EnMin= -40.8835858597123     IErMin= 6 ErrMin= 2.11D-05
 ErrMax= 2.11D-05 EMaxC= 1.00D-01 BMatC= 2.14D-08 BMatP= 3.73D-07
 IDIUse=1 WtCom= 1.00D+00 WtEn= 0.00D+00
 Coeff-Com: -0.143D-03-0.136D-02-0.364D-02 0.896D-01-0.527D+00 0.144D+01
 Coeff:     -0.143D-03-0.136D-02-0.364D-02 0.896D-01-0.527D+00 0.144D+01
 Gap=     0.512 Goal=   None    Shift=    0.000
 Gap=     0.502 Goal=   None    Shift=    0.000
 RMSDP=3.27D-06 MaxDP=1.12D-04 DE=-4.10D-07 OVMax= 1.85D-04

 Cycle   7  Pass 1  IDiag  1:
 RMSU=  6.13D-07    CP:  7.80D-01  2.23D+00  1.33D+00  1.20D+00  1.51D+00
                    CP:  1.58D+00
 FoFJK:  IHMeth= 1 ICntrl=     0 DoSepK=T KAlg= 1 I1Cent= 0 FoldK=F
 E= -40.8835858840848     Delta-E=       -0.000000024373 Rises=F Damp=F
 DIIS: error= 4.71D-06 at cycle   7 NSaved=   7.
 NSaved= 7 IEnMin= 7 EnMin= -40.8835858840848     IErMin= 7 ErrMin= 4.71D-06
 ErrMax= 4.71D-06 EMaxC= 1.00D-01 BMatC= 1.50D-09 BMatP= 2.14D-08
 IDIUse=1 WtCom= 1.00D+00 WtEn= 0.00D+00
 Coeff-Com: -0.851D-06 0.382D-03 0.736D-03-0.221D-01 0.149D+00-0.556D+00
 Coeff-Com:  0.143D+01
 Coeff:     -0.851D-06 0.382D-03 0.736D-03-0.221D-01 0.149D+00-0.556D+00
 Coeff:      0.143D+01
 Gap=     0.512 Goal=   None    Shift=    0.000
 Gap=     0.502 Goal=   None    Shift=    0.000
 RMSDP=4.74D-07 MaxDP=1.03D-05 DE=-2.44D-08 OVMax= 3.15D-05

 Cycle   8  Pass 1  IDiag  1:
 RMSU=  1.70D-07    CP:  7.80D-01  2.23D+00  1.33D+00  1.20D+00  1.51D+00
                    CP:  1.70D+00  1.45D+00
 FoFJK:  IHMeth= 1 ICntrl=     0 DoSepK=T KAlg= 1 I1Cent= 0 FoldK=F
 E= -40.8835858854431     Delta-E=       -0.000000001358 Rises=F Damp=F
 DIIS: error= 1.43D-06 at cycle   8 NSaved=   8.
 NSaved= 8 IEnMin= 8 EnMin= -40.8835858854431     IErMin= 8 ErrMin= 1.43D-06
 ErrMax= 1.43D-06 EMaxC= 1.00D-01 BMatC= 1.25D-10 BMatP= 1.50D-09
 IDIUse=1 WtCom= 1.00D+00 WtEn= 0.00D+00
 Coeff-Com:  0.185D-04 0.305D-04 0.217D-03-0.339D-02 0.148D-01 0.341D-03
 Coeff-Com: -0.339D+00 0.133D+01
 Coeff:      0.185D-04 0.305D-04 0.217D-03-0.339D-02 0.148D-01 0.341D-03
 Coeff:     -0.339D+00 0.133D+01
 Gap=     0.512 Goal=   None    Shift=    0.000
 Gap=     0.502 Goal=   None    Shift=    0.000
 RMSDP=1.42D-07 MaxDP=3.37D-06 DE=-1.36D-09 OVMax= 8.87D-06

 Cycle   9  Pass 1  IDiag  1:
 RMSU=  2.94D-08    CP:  7.80D-01  2.23D+00  1.33D+00  1.20D+00  1.51D+00
                    CP:  1.72D+00  1.55D+00  1.46D+00
 FoFJK:  IHMeth= 1 ICntrl=     0 DoSepK=T KAlg= 1 I1Cent= 0 FoldK=F
 E= -40.8835858855497     Delta-E=       -0.000000000107 Rises=F Damp=F
 DIIS: error= 3.72D-07 at cycle   9 NSaved=   9.
 NSaved= 9 IEnMin= 9 EnMin= -40.8835858855497     IErMin= 9 ErrMin= 3.72D-07
 ErrMax= 3.72D-07 EMaxC= 1.00D-01 BMatC= 7.31D-12 BMatP= 1.25D-10
 IDIUse=1 WtCom= 1.00D+00 WtEn= 0.00D+00
 Coeff-Com: -0.559D-06-0.322D-04-0.895D-04 0.210D-02-0.131D-01 0.447D-01
 Coeff-Com: -0.889D-01-0.795D-01 0.113D+01
 Coeff:     -0.559D-06-0.322D-04-0.895D-04 0.210D-02-0.131D-01 0.447D-01
 Coeff:     -0.889D-01-0.795D-01 0.113D+01
 Gap=     0.512 Goal=   None    Shift=    0.000
 Gap=     0.502 Goal=   None    Shift=    0.000
 RMSDP=2.67D-08 MaxDP=7.79D-07 DE=-1.07D-10 OVMax= 1.71D-06

 Cycle  10  Pass 1  IDiag  1:
 RMSU=  7.77D-09    CP:  7.80D-01  2.23D+00  1.33D+00  1.20D+00  1.51D+00
                    CP:  1.72D+00  1.56D+00  1.54D+00  1.41D+00
 FoFJK:  IHMeth= 1 ICntrl=     0 DoSepK=T KAlg= 1 I1Cent= 0 FoldK=F
 E= -40.8835858855559     Delta-E=       -0.000000000006 Rises=F Damp=F
 DIIS: error= 8.04D-08 at cycle  10 NSaved=  10.
 NSaved=10 IEnMin=10 EnMin= -40.8835858855559     IErMin=10 ErrMin= 8.04D-08
 ErrMax= 8.04D-08 EMaxC= 1.00D-01 BMatC= 6.12D-13 BMatP= 7.31D-12
 IDIUse=1 WtCom= 1.00D+00 WtEn= 0.00D+00
 Coeff-Com: -0.117D-05 0.118D-04 0.197D-04-0.642D-03 0.437D-02-0.181D-01
 Coeff-Com:  0.585D-01-0.595D-01-0.439D+00 0.145D+01
 Coeff:     -0.117D-05 0.118D-04 0.197D-04-0.642D-03 0.437D-02-0.181D-01
 Coeff:      0.585D-01-0.595D-01-0.439D+00 0.145D+01
 Gap=     0.512 Goal=   None    Shift=    0.000
 Gap=     0.502 Goal=   None    Shift=    0.000
 RMSDP=1.02D-08 MaxDP=1.87D-07 DE=-6.28D-12 OVMax= 5.27D-07

 Cycle  11  Pass 1  IDiag  1:
 RMSU=  2.53D-09    CP:  7.80D-01  2.23D+00  1.33D+00  1.20D+00  1.51D+00
                    CP:  1.72D+00  1.56D+00  1.54D+00  1.54D+00  1.55D+00
 FoFJK:  IHMeth= 1 ICntrl=     0 DoSepK=T KAlg= 1 I1Cent= 0 FoldK=F
 E= -40.8835858855566     Delta-E=       -0.000000000001 Rises=F Damp=F
 DIIS: error= 1.60D-08 at cycle  11 NSaved=  11.
 NSaved=11 IEnMin=11 EnMin= -40.8835858855566     IErMin=11 ErrMin= 1.60D-08
 ErrMax= 1.60D-08 EMaxC= 1.00D-01 BMatC= 3.88D-14 BMatP= 6.12D-13
 IDIUse=1 WtCom= 1.00D+00 WtEn= 0.00D+00
 Coeff-Com:  0.543D-06-0.419D-05-0.363D-05 0.197D-03-0.138D-02 0.592D-02
 Coeff-Com: -0.207D-01 0.260D-01 0.141D+00-0.632D+00 0.148D+01
 Coeff:      0.543D-06-0.419D-05-0.363D-05 0.197D-03-0.138D-02 0.592D-02
 Coeff:     -0.207D-01 0.260D-01 0.141D+00-0.632D+00 0.148D+01
 Gap=     0.512 Goal=   None    Shift=    0.000
 Gap=     0.502 Goal=   None    Shift=    0.000
 RMSDP=2.90D-09 MaxDP=4.78D-08 DE=-6.75D-13 OVMax= 1.03D-07

 SCF Done:  E(ULC-B+HF-LYP) =  -40.8835858856     A.U. after   11 cycles
             Convg  =    0.2902D-08             -V/T =  2.0051
 <Sx>= 0.0000 <Sy>= 0.0000 <Sz>= 0.5000 <S**2>= 0.7501 S= 0.5001
 <L.S>= 0.000000000000E+00
 KE= 4.067784290387D+01 PE=-1.240842623938D+02 EE= 2.755680791927D+01
 Annihilation of the first spin contaminant:
 S**2 before annihilation     0.7501,   after     0.7500
 Leave Link  502 at Wed Nov  3 01:24:23 2010, MaxMem=  786432000 cpu:     256.5
 (Enter /share/apps/G09A02/g09/l601.exe)
 Copying SCF densities to generalized density rwf, IOpCl= 1 IROHF=0.

 **********************************************************************

            Population analysis using the SCF density.

 **********************************************************************

 Alpha  occ. eigenvalues --  -10.11342  -0.85985  -0.52982  -0.52538  -0.52538
 Alpha  occ. eigenvalues --   -0.44780
 Alpha virt. eigenvalues --    0.06440   0.09600   0.09600   0.10980   0.22646
 Alpha virt. eigenvalues --    0.22646   0.24255   0.26983   0.35617   0.36740
 Alpha virt. eigenvalues --    0.36740   0.41863   0.41863   0.44337   0.64619
 Alpha virt. eigenvalues --    0.64619   0.67105   0.69243   0.69243   0.71068
 Alpha virt. eigenvalues --    0.74540   0.80259   0.80259   0.80284   0.98547
 Alpha virt. eigenvalues --    0.99171   0.99356   0.99356   1.10262   1.10262
 Alpha virt. eigenvalues --    1.25275   1.25276   1.29715   1.40945   1.40945
 Alpha virt. eigenvalues --    1.42108   1.68788   2.06603   2.06603   2.07476
 Alpha virt. eigenvalues --    2.07800   2.07800   2.35906   2.52837   2.78757
 Alpha virt. eigenvalues --    2.78757   2.80869   3.08965   3.08965   3.09001
 Alpha virt. eigenvalues --    3.43882   3.43882   3.44728   3.63803   3.65137
 Alpha virt. eigenvalues --    3.65137   3.80675   3.80675   3.96656   4.08018
 Alpha virt. eigenvalues --    4.31081   4.31081   4.33240   4.35633   4.35633
 Alpha virt. eigenvalues --    4.58727   4.58744   4.58744   5.01987   5.89350
 Alpha virt. eigenvalues --    5.89352   5.89352   7.30278   7.30278   7.91453
 Alpha virt. eigenvalues --    7.91454   7.92274  24.29254
  Beta  occ. eigenvalues --  -10.11320  -0.85916  -0.52533  -0.52522  -0.52522
  Beta virt. eigenvalues --   -0.02330   0.06776   0.09492   0.09493   0.11451
  Beta virt. eigenvalues --    0.22637   0.22637   0.24646   0.27079   0.36727
  Beta virt. eigenvalues --    0.36727   0.38901   0.41837   0.41837   0.47598
  Beta virt. eigenvalues --    0.64696   0.64696   0.67605   0.71286   0.73346
  Beta virt. eigenvalues --    0.73346   0.75547   0.80254   0.80254   0.80375
  Beta virt. eigenvalues --    0.99171   0.99369   0.99369   0.99988   1.10260
  Beta virt. eigenvalues --    1.10260   1.25272   1.25272   1.30053   1.40953
  Beta virt. eigenvalues --    1.40953   1.41989   1.68767   2.06628   2.06628
  Beta virt. eigenvalues --    2.07834   2.07834   2.07840   2.52753   2.56579
  Beta virt. eigenvalues --    2.78779   2.78779   2.80930   3.09010   3.09021
  Beta virt. eigenvalues --    3.09021   3.43912   3.43912   3.44854   3.64495
  Beta virt. eigenvalues --    3.65214   3.65214   3.96136   3.96136   4.07262
  Beta virt. eigenvalues --    4.11395   4.31090   4.31090   4.33682   4.35630
  Beta virt. eigenvalues --    4.35630   4.58734   4.58758   4.58758   5.02069
  Beta virt. eigenvalues --    5.89366   5.89366   5.89391   7.30345   7.30345
  Beta virt. eigenvalues --    7.91494   7.91494   7.92365  24.29284
          Condensed to atoms (all electrons):
              1          2          3          4          5          6
     1  C    5.075199   0.394125   0.401975   0.401975   0.401975   0.002680
     2  H    0.394125   0.483769  -0.017120  -0.017120  -0.017120  -0.003166
     3  H    0.401975  -0.017120   0.483401  -0.017242  -0.017242  -0.000054
     4  H    0.401975  -0.017120  -0.017242   0.483400  -0.017242  -0.000054
     5  H    0.401975  -0.017120  -0.017242  -0.017242   0.483400  -0.000054
     6  H    0.002680  -0.003166  -0.000054  -0.000054  -0.000054   0.998202
 Mulliken atomic charges:
              1
     1  C   -0.677928
     2  H    0.176633
     3  H    0.166283
     4  H    0.166284
     5  H    0.166284
     6  H    0.002445
 Sum of Mulliken atomic charges =   0.00000
 Mulliken charges with hydrogens summed into heavy atoms:
              1
     1  C    0.000000
 Sum of Mulliken charges with hydrogens summed into heavy atoms =   0.00000
          Atomic-Atomic Spin Densities.
              1          2          3          4          5          6
     1  C    0.020266   0.001444  -0.000329  -0.000329  -0.000329   0.001359
     2  H    0.001444  -0.013644   0.000841   0.000840   0.000840  -0.005444
     3  H   -0.000329   0.000841  -0.000253  -0.000186  -0.000186  -0.000011
     4  H   -0.000329   0.000840  -0.000186  -0.000253  -0.000186  -0.000011
     5  H   -0.000329   0.000840  -0.000186  -0.000186  -0.000253  -0.000011
     6  H    0.001359  -0.005444  -0.000011  -0.000011  -0.000011   0.997527
 Mulliken atomic spin densities:
              1
     1  C    0.022082
     2  H   -0.015122
     3  H   -0.000123
     4  H   -0.000124
     5  H   -0.000124
     6  H    0.993411
 Sum of Mulliken atomic spin densities =   1.00000
 Electronic spatial extent (au):  <R**2>=             82.9105
 Charge=              0.0000 electrons
 Dipole moment (field-independent basis, Debye):
    X=              0.0000    Y=              0.0000    Z=             -0.0008  Tot=              0.0008
 Quadrupole moment (field-independent basis, Debye-Ang):
   XX=             -9.9454   YY=             -9.9454   ZZ=             -9.9139
   XY=              0.0000   XZ=              0.0000   YZ=              0.0000
 Traceless Quadrupole moment (field-independent basis, Debye-Ang):
   XX=             -0.0105   YY=             -0.0105   ZZ=              0.0210
   XY=              0.0000   XZ=              0.0000   YZ=              0.0000
 Octapole moment (field-independent basis, Debye-Ang**2):
  XXX=              0.6629  YYY=              0.0000  ZZZ=            -13.8288  XYY=             -0.6629
  XXY=              0.0000  XXZ=             -5.4722  XZZ=              0.0000  YZZ=              0.0000
  YYZ=             -5.4722  XYZ=              0.0000
 Hexadecapole moment (field-independent basis, Debye-Ang**3):
 XXXX=            -18.4879 YYYY=            -18.4879 ZZZZ=           -121.8429 XXXY=              0.0000
 XXXZ=             -0.4221 YYYX=              0.0000 YYYZ=              0.0000 ZZZX=              0.0000
 ZZZY=              0.0000 XXYY=             -6.1626 XXZZ=            -23.9699 YYZZ=            -23.9699
 XXYZ=              0.0000 YYXZ=              0.4221 ZZXY=              0.0000
 N-N= 1.496602568509D+01 E-N=-1.848457598605D+02  KE= 6.076376797704D+01
                          Isotropic Fermi Contact Couplings
        Atom                 a.u.       MegaHertz       Gauss      10(-4) cm-1
     1  C(13)              0.00510       5.73441       2.04618       1.91279
     2  H(1)               0.00031       1.39019       0.49605       0.46372
     3  H(1)              -0.00006      -0.25547      -0.09116      -0.08522
     4  H(1)              -0.00006      -0.25543      -0.09115      -0.08520
     5  H(1)              -0.00006      -0.25543      -0.09115      -0.08520
     6  H(1)               0.28626    1279.54874     456.57479     426.81152
 --------------------------------------------------------
       Center         ----  Spin Dipole Couplings  ----
                      3XX-RR        3YY-RR        3ZZ-RR
 --------------------------------------------------------
     1   Atom       -0.011534     -0.011534      0.023068
     2   Atom       -0.012442     -0.012442      0.024885
     3   Atom       -0.000984     -0.003072      0.004055
     4   Atom       -0.002550     -0.001506      0.004055
     5   Atom       -0.002550     -0.001506      0.004055
     6   Atom        0.000239      0.000239     -0.000479
 --------------------------------------------------------
                        XY            XZ            YZ
 --------------------------------------------------------
     1   Atom        0.000000      0.000000      0.000000
     2   Atom        0.000000      0.000000      0.000000
     3   Atom        0.000000     -0.002125      0.000000
     4   Atom        0.000904      0.001062      0.001840
     5   Atom       -0.000904      0.001062     -0.001840
     6   Atom        0.000000      0.000000      0.000000
 --------------------------------------------------------


 ---------------------------------------------------------------------------------
              Anisotropic Spin Dipole Couplings in Principal Axis System
 ---------------------------------------------------------------------------------

       Atom             a.u.   MegaHertz   Gauss  10(-4) cm-1        Axes

              Baa    -0.0115    -1.548    -0.552    -0.516  0.0000  1.0000  0.0000
     1 C(13)  Bbb    -0.0115    -1.548    -0.552    -0.516  1.0000  0.0000  0.0000
              Bcc     0.0231     3.096     1.105     1.033  0.0000  0.0000  1.0000
 
              Baa    -0.0124    -6.639    -2.369    -2.214  1.0000  0.0000  0.0000
     2 H(1)   Bbb    -0.0124    -6.639    -2.369    -2.214  0.0000  1.0000  0.0000
              Bcc     0.0249    13.277     4.738     4.429  0.0000  0.0000  1.0000
 
              Baa    -0.0031    -1.639    -0.585    -0.547  0.0000  1.0000  0.0000
     3 H(1)   Bbb    -0.0018    -0.939    -0.335    -0.313  0.9393  0.0000  0.3432
              Bcc     0.0048     2.578     0.920     0.860 -0.3432  0.0000  0.9393
 
              Baa    -0.0031    -1.639    -0.585    -0.547  0.8660 -0.5000  0.0000
     4 H(1)   Bbb    -0.0018    -0.939    -0.335    -0.313  0.4696  0.8134 -0.3432
              Bcc     0.0048     2.578     0.920     0.860  0.1716  0.2972  0.9393
 
              Baa    -0.0031    -1.639    -0.585    -0.547  0.8660  0.5000  0.0000
     5 H(1)   Bbb    -0.0018    -0.939    -0.335    -0.313 -0.4696  0.8134  0.3432
              Bcc     0.0048     2.578     0.920     0.860  0.1716 -0.2972  0.9393
 
              Baa    -0.0005    -0.255    -0.091    -0.085  0.0000  0.0000  1.0000
     6 H(1)   Bbb     0.0002     0.128     0.046     0.043  1.0000  0.0000  0.0000
              Bcc     0.0002     0.128     0.046     0.043  0.0000  1.0000  0.0000
 

 ---------------------------------------------------------------------------------

 No NMR shielding tensors so no spin-rotation constants.
 Leave Link  601 at Wed Nov  3 01:24:24 2010, MaxMem=  786432000 cpu:       3.8
 (Enter /share/apps/G09A02/g09/l9999.exe)
 1\1\GINC-COMPUTE-0-7\SP\ULC-BLYP\6-311+G(3df,2p)\C1H5(2)\WENXINZY\03-N
 ov-2010\0\\#p lc-blyp/6-311+g(3df,2p) nosymm scf=tight\\29 H_CH4\\0,2\
 C\H,1,1.0894364\H,1,1.089348,2,109.4695831\H,1,1.089348,2,109.4695831,
 3,120.,0\H,1,1.089348,2,109.4695831,3,-120.,0\H,2,2.4127383,1,180.,3,0
 .,0\\Version=EM64L-G09RevA.02\HF=-40.8835859\S2=0.750116\S2-1=0.\S2A=0
 .75\RMSD=2.902e-09\Dipole=0.0000002,0.,-0.0003269\Quadrupole=-0.007823
 8,-0.0078209,0.0156446,0.,-0.0000006,0.\PG=C03V [C3(H1H1C1),3SGV(H1)]\
 \@


 ONE OF THE BENEFITS OF A COLLEGE EDUCATION
 IS TO SHOW THE BOY ITS LITTLE AVAIL 
                                    EMERSON IN 'CULTURE'
 Job cpu time:  0 days  0 hours  4 minutes 31.2 seconds.
 File lengths (MBytes):  RWF=      9 Int=      0 D2E=      0 Chk=      1 Scr=      1
 Normal termination of Gaussian 09 at Wed Nov  3 01:24:24 2010.
