 Entering Gaussian System, Link 0=/share/apps/G09A02/g09/g09
 Input=./.script12553/Job_H_CH4_40.com
 Output=./.script12553/Job_H_CH4_40.log
 Initial command:
 /share/apps/G09A02/g09/l1.exe /state/partition1/wenxinzy/scratch/Gau-16638.inp -scrdir=/state/partition1/wenxinzy/scratch/
 Default is to use a total of   8 processors:
                                8 via shared-memory
                                1 via Linda
 Entering Link 1 = /share/apps/G09A02/g09/l1.exe PID=     16639.
  
 Copyright (c) 1988,1990,1992,1993,1995,1998,2003,2009, Gaussian, Inc.
                  All Rights Reserved.
  
 This is part of the Gaussian(R) 09 program.  It is based on
 the Gaussian(R) 03 system (copyright 2003, Gaussian, Inc.),
 the Gaussian(R) 98 system (copyright 1998, Gaussian, Inc.),
 the Gaussian(R) 94 system (copyright 1995, Gaussian, Inc.),
 the Gaussian 92(TM) system (copyright 1992, Gaussian, Inc.),
 the Gaussian 90(TM) system (copyright 1990, Gaussian, Inc.),
 the Gaussian 88(TM) system (copyright 1988, Gaussian, Inc.),
 the Gaussian 86(TM) system (copyright 1986, Carnegie Mellon
 University), and the Gaussian 82(TM) system (copyright 1983,
 Carnegie Mellon University). Gaussian is a federally registered
 trademark of Gaussian, Inc.
  
 This software contains proprietary and confidential information,
 including trade secrets, belonging to Gaussian, Inc.
  
 This software is provided under written license and may be
 used, copied, transmitted, or stored only in accord with that
 written license.
  
 The following legend is applicable only to US Government
 contracts under FAR:
  
                    RESTRICTED RIGHTS LEGEND
  
 Use, reproduction and disclosure by the US Government is
 subject to restrictions as set forth in subparagraphs (a)
 and (c) of the Commercial Computer Software - Restricted
 Rights clause in FAR 52.227-19.
  
 Gaussian, Inc.
 340 Quinnipiac St., Bldg. 40, Wallingford CT 06492
  
  
 ---------------------------------------------------------------
 Warning -- This program may not be used in any manner that
 competes with the business of Gaussian, Inc. or will provide
 assistance to any competitor of Gaussian, Inc.  The licensee
 of this program is prohibited from giving any competitor of
 Gaussian, Inc. access to this program.  By using this program,
 the user acknowledges that Gaussian, Inc. is engaged in the
 business of creating and licensing software in the field of
 computational chemistry and represents and warrants to the
 licensee that it is not a competitor of Gaussian, Inc. and that
 it will not use this program in any manner prohibited above.
 ---------------------------------------------------------------
  

 Cite this work as:
 Gaussian 09, Revision A.02,
 M. J. Frisch, G. W. Trucks, H. B. Schlegel, G. E. Scuseria, 
 M. A. Robb, J. R. Cheeseman, G. Scalmani, V. Barone, B. Mennucci, 
 G. A. Petersson, H. Nakatsuji, M. Caricato, X. Li, H. P. Hratchian, 
 A. F. Izmaylov, J. Bloino, G. Zheng, J. L. Sonnenberg, M. Hada, 
 M. Ehara, K. Toyota, R. Fukuda, J. Hasegawa, M. Ishida, T. Nakajima, 
 Y. Honda, O. Kitao, H. Nakai, T. Vreven, J. A. Montgomery, Jr., 
 J. E. Peralta, F. Ogliaro, M. Bearpark, J. J. Heyd, E. Brothers, 
 K. N. Kudin, V. N. Staroverov, R. Kobayashi, J. Normand, 
 K. Raghavachari, A. Rendell, J. C. Burant, S. S. Iyengar, J. Tomasi, 
 M. Cossi, N. Rega, J. M. Millam, M. Klene, J. E. Knox, J. B. Cross, 
 V. Bakken, C. Adamo, J. Jaramillo, R. Gomperts, R. E. Stratmann, 
 O. Yazyev, A. J. Austin, R. Cammi, C. Pomelli, J. W. Ochterski, 
 R. L. Martin, K. Morokuma, V. G. Zakrzewski, G. A. Voth, 
 P. Salvador, J. J. Dannenberg, S. Dapprich, A. D. Daniels, 
 O. Farkas, J. B. Foresman, J. V. Ortiz, J. Cioslowski, 
 and D. J. Fox, Gaussian, Inc., Wallingford CT, 2009.
 
 ******************************************
 Gaussian 09:  EM64L-G09RevA.02 11-Jun-2009
                 3-Nov-2010 
 ******************************************
 %chk=/state/partition1/wenxinzy/scratch/H_CH4_40.chk
 %nproc=8
 Will use up to    8 processors via shared memory.
 %mem=6000mb
 -------------------------------------------
 #p lc-blyp/6-311+g(3df,2p) nosymm scf=tight
 -------------------------------------------
 1/38=1/1;
 2/12=2,15=1,17=6,18=5,40=1/2;
 3/5=4,6=6,7=216,11=2,16=1,25=1,30=1,74=1000402/1,2,3;
 4//1;
 5/5=2,32=2,38=5/2;
 6/7=2,8=2,9=2,10=2,28=1/1;
 99/5=1,9=1/99;
 Leave Link    1 at Wed Nov  3 01:30:09 2010, MaxMem=  786432000 cpu:       0.5
 (Enter /share/apps/G09A02/g09/l101.exe)
 --------
 41 H_CH4
 --------
 Symbolic Z-matrix:
 Charge =  0 Multiplicity = 2
 C
 H1                   C    R1
 H2                   C    R2       H1   A1
 H3                   C    R2       H1   A1       H2    120.     0
 H4                   C    R2       H1   A1       H2   -120.     0
 H5                   H1   R3       C     180.     H2    0.       0
       Variables:
  R1                    1.08927                  
  R2                    1.0893                   
  A1                  109.46877                  
  R3                    2.85445                  
 
 NAtoms=      6 NQM=      6 NQMF=      0 NMic=      0 NMicF=      0 NTot=      6.
                    Isotopes and Nuclear Properties:
 (Nuclear quadrupole moments (NQMom) in fm**2, nuclear magnetic moments (NMagM)
  in nuclear magnetons)

  Atom         1           2           3           4           5           6
 IAtWgt=          12           1           1           1           1           1
 AtmWgt=  12.0000000   1.0078250   1.0078250   1.0078250   1.0078250   1.0078250
 NucSpn=           0           1           1           1           1           1
 AtZEff=   0.0000000   0.0000000   0.0000000   0.0000000   0.0000000   0.0000000
 NQMom=    0.0000000   0.0000000   0.0000000   0.0000000   0.0000000   0.0000000
 NMagM=    0.0000000   2.7928460   2.7928460   2.7928460   2.7928460   2.7928460
 Leave Link  101 at Wed Nov  3 01:30:09 2010, MaxMem=  786432000 cpu:       1.2
 (Enter /share/apps/G09A02/g09/l202.exe)
                          Input orientation:                          
 ---------------------------------------------------------------------
 Center     Atomic      Atomic             Coordinates (Angstroms)
 Number     Number       Type             X           Y           Z
 ---------------------------------------------------------------------
      1          6           0        0.000000    0.000000    0.000000
      2          1           0        0.000000    0.000000    1.089269
      3          1           0        1.027016    0.000000   -0.363056
      4          1           0       -0.513508   -0.889422   -0.363056
      5          1           0       -0.513508    0.889422   -0.363056
      6          1           0        0.000000    0.000000    3.943722
 ---------------------------------------------------------------------
                    Distance matrix (angstroms):
                    1          2          3          4          5
     1  C    0.000000
     2  H    1.089269   0.000000
     3  H    1.089299   1.778766   0.000000
     4  H    1.089299   1.778766   1.778845   0.000000
     5  H    1.089299   1.778766   1.778845   1.778845   0.000000
     6  H    3.943722   2.854453   4.427538   4.427538   4.427538
                    6
     6  H    0.000000
 Symmetry turned off by external request.
 Stoichiometry    CH5(2)
 Framework group  C3V[C3(HHC),3SGV(H)]
 Deg. of freedom     4
 Full point group                 C3V     NOp   6
 Rotational constants (GHZ):    158.4732804     28.1763016     28.1763016
 Leave Link  202 at Wed Nov  3 01:30:09 2010, MaxMem=  786432000 cpu:       0.0
 (Enter /share/apps/G09A02/g09/l301.exe)
 Standard basis: 6-311+G(3df,2p) (5D, 7F)
 Ernie: Thresh=  0.10000D-02 Tol=  0.10000D-05 Strict=F.
 Integral buffers will be    131072 words long.
 Raffenetti 2 integral format.
 Two-electron integral symmetry is turned off.
    84 basis functions,   113 primitive gaussians,    90 cartesian basis functions
     6 alpha electrons        5 beta electrons
       nuclear repulsion energy        14.7931670559 Hartrees.
 IExCor=10402 DFT=T Ex=LC-B+HF Corr=LYP ExCW=0 ScaHFX=  1.000000
 ScaDFX=  1.000000  1.000000  1.000000  1.000000 ScalE2=  1.000000  1.000000
 IRadAn=      0 IRanWt=     -1 IRanGd=            0 ICorTp=0
  HFx wShort=  0.000000 wLong=  0.470000 cFull=  0.000000 cShort=  0.000000 cLong=  1.000000
  DFx wShort=  0.000000 wLong=  0.470000 cFull=  0.000000 cShort=  0.000000 cLong=  1.000000
 NAtoms=    6 NActive=    6 NUniq=    6 SFac= 7.50D-01 NAtFMM=   80 NAOKFM=F Big=F
 Leave Link  301 at Wed Nov  3 01:30:09 2010, MaxMem=  786432000 cpu:       0.7
 (Enter /share/apps/G09A02/g09/l302.exe)
 NPDir=0 NMtPBC=     1 NCelOv=     1 NCel=       1 NClECP=     1 NCelD=      1
         NCelK=      1 NCelE2=     1 NClLst=     1 CellRange=     0.0.
 One-electron integrals computed using PRISM.
 NBasis=    84 RedAO= T  NBF=    84
 NBsUse=    84 1.00D-06 NBFU=    84
 Precomputing XC quadrature grid using
 IXCGrd= 2 IRadAn=           0 IRanWt=          -1 IRanGd=           0 AccXCQ= 1.00D-10.
 NRdTot=     384 NPtTot=       48740 NUsed=       51519 NTot=       51551
 NSgBfM=    90    90    90    90    90 NAtAll=     6     6.
 Leave Link  302 at Wed Nov  3 01:30:09 2010, MaxMem=  786432000 cpu:       2.5
 (Enter /share/apps/G09A02/g09/l303.exe)
 DipDrv:  MaxL=1.
 Leave Link  303 at Wed Nov  3 01:30:09 2010, MaxMem=  786432000 cpu:       0.4
 (Enter /share/apps/G09A02/g09/l401.exe)
 Harris functional with IExCor=10402 diagonalized for initial guess.
 ExpMin= 4.38D-02 ExpMax= 4.56D+03 ExpMxC= 6.82D+02 IAcc=2 IRadAn=         0 AccDes= 0.00D+00
 HarFok:  IExCor=10402 AccDes= 0.00D+00 IRadAn=         0 IDoV= 1
 ScaDFX=  1.000000  1.000000  1.000000  1.000000
 FoFCou: FMM=F IPFlag=           0 FMFlag=      100000 FMFlg1=           0
         NFxFlg=           0 DoJE=T BraDBF=F KetDBF=T FulRan=T
         Omega=  0.000000  0.000000  1.000000  0.000000  0.000000 ICntrl=     500 IOpCl=  0
         NMat0=    1 NMatS0=    1 NMatT0=    0 NMatD0=    1 NMtDS0=    0 NMtDT0=    0
         I1Cent=           4 NGrid=           0.
 Symmetry not used in FoFCou.
 Harris En= -38.5631707723955    
 Initial guess <Sx>= 0.0000 <Sy>= 0.0000 <Sz>= 0.5000 <S**2>= 0.7500 S= 0.5000
 Leave Link  401 at Wed Nov  3 01:30:10 2010, MaxMem=  786432000 cpu:       3.6
 (Enter /share/apps/G09A02/g09/l502.exe)
 UHF open shell SCF:
 Requested convergence on RMS density matrix=1.00D-08 within 128 cycles.
 Requested convergence on MAX density matrix=1.00D-06.
 Requested convergence on             energy=1.00D-06.
 No special actions if energy rises.
 Using DIIS extrapolation, IDIIS=  1040.
 Two-electron integral symmetry not used.
        51452 words used for storage of precomputed grid.
 IEnd=       95170 IEndB=       95170 NGot=   786432000 MDV=   786361661
 LenX=   786361661 LenY=   786353120
 Fock matrices will be formed incrementally for  20 cycles.

 Cycle   1  Pass 1  IDiag  1:
 FoFJK:  IHMeth= 1 ICntrl=     0 DoSepK=T KAlg= 1 I1Cent= 0 FoldK=F
 FoFCou: FMM=F IPFlag=           0 FMFlag=      100000 FMFlg1=           0
         NFxFlg=           0 DoJE=T BraDBF=F KetDBF=F FulRan=T
         Omega=  0.000000  0.000000  1.000000  0.000000  0.000000 ICntrl=     500 IOpCl=  0
         NMat0=    1 NMatS0=    1 NMatT0=    0 NMatD0=    1 NMtDS0=    0 NMtDT0=    0
         I1Cent=           0 NGrid=           0.
 Symmetry not used in FoFCou.
 E= -40.8000211287286    
 DIIS: error= 3.46D-02 at cycle   1 NSaved=   1.
 NSaved= 1 IEnMin= 1 EnMin= -40.8000211287286     IErMin= 1 ErrMin= 3.46D-02
 ErrMax= 3.46D-02 EMaxC= 1.00D-01 BMatC= 2.55D-01 BMatP= 2.55D-01
 IDIUse=3 WtCom= 6.54D-01 WtEn= 3.46D-01
 Coeff-Com:  0.100D+01
 Coeff-En:   0.100D+01
 Coeff:      0.100D+01
 Gap=     0.514 Goal=   None    Shift=    0.000
 Gap=     0.351 Goal=   None    Shift=    0.000
 GapD=    0.351 DampG=1.000 DampE=0.500 DampFc=0.5000 IDamp=-1.
 Damping current iteration by 5.00D-01
 RMSDP=4.41D-03 MaxDP=1.76D-01              OVMax= 1.62D-01

 Cycle   2  Pass 1  IDiag  1:
 RMSU=  1.72D-03    CP:  9.11D-01
 FoFJK:  IHMeth= 1 ICntrl=     0 DoSepK=T KAlg= 1 I1Cent= 0 FoldK=F
 E= -40.8415446285027     Delta-E=       -0.041523499774 Rises=F Damp=T
 DIIS: error= 1.26D-02 at cycle   2 NSaved=   2.
 NSaved= 2 IEnMin= 2 EnMin= -40.8415446285027     IErMin= 2 ErrMin= 1.26D-02
 ErrMax= 1.26D-02 EMaxC= 1.00D-01 BMatC= 2.17D-02 BMatP= 2.55D-01
 IDIUse=3 WtCom= 8.74D-01 WtEn= 1.26D-01
 Coeff-Com: -0.223D+00 0.122D+01
 Coeff-En:   0.000D+00 0.100D+01
 Coeff:     -0.195D+00 0.119D+01
 Gap=     0.569 Goal=   None    Shift=    0.000
 Gap=     0.470 Goal=   None    Shift=    0.000
 RMSDP=2.33D-03 MaxDP=1.17D-01 DE=-4.15D-02 OVMax= 4.46D-02

 Cycle   3  Pass 1  IDiag  1:
 RMSU=  8.75D-04    CP:  8.37D-01  1.97D+00
 FoFJK:  IHMeth= 1 ICntrl=     0 DoSepK=T KAlg= 1 I1Cent= 0 FoldK=F
 E= -40.8826425657360     Delta-E=       -0.041097937233 Rises=F Damp=F
 DIIS: error= 3.54D-03 at cycle   3 NSaved=   3.
 NSaved= 3 IEnMin= 3 EnMin= -40.8826425657360     IErMin= 3 ErrMin= 3.54D-03
 ErrMax= 3.54D-03 EMaxC= 1.00D-01 BMatC= 9.42D-04 BMatP= 2.17D-02
 IDIUse=3 WtCom= 9.65D-01 WtEn= 3.54D-02
 Coeff-Com:  0.437D-01-0.292D+00 0.125D+01
 Coeff-En:   0.000D+00 0.000D+00 0.100D+01
 Coeff:      0.421D-01-0.282D+00 0.124D+01
 Gap=     0.515 Goal=   None    Shift=    0.000
 Gap=     0.502 Goal=   None    Shift=    0.000
 RMSDP=5.81D-04 MaxDP=3.05D-02 DE=-4.11D-02 OVMax= 3.66D-02

 Cycle   4  Pass 1  IDiag  1:
 RMSU=  2.69D-04    CP:  8.22D-01  2.15D+00  1.31D+00
 FoFJK:  IHMeth= 1 ICntrl=     0 DoSepK=T KAlg= 1 I1Cent= 0 FoldK=F
 E= -40.8835587395882     Delta-E=       -0.000916173852 Rises=F Damp=F
 DIIS: error= 4.77D-04 at cycle   4 NSaved=   4.
 NSaved= 4 IEnMin= 4 EnMin= -40.8835587395882     IErMin= 4 ErrMin= 4.77D-04
 ErrMax= 4.77D-04 EMaxC= 1.00D-01 BMatC= 2.22D-05 BMatP= 9.42D-04
 IDIUse=3 WtCom= 9.95D-01 WtEn= 4.77D-03
 Coeff-Com: -0.401D-02-0.314D-02-0.106D+00 0.111D+01
 Coeff-En:   0.000D+00 0.000D+00 0.000D+00 0.100D+01
 Coeff:     -0.400D-02-0.312D-02-0.106D+00 0.111D+01
 Gap=     0.513 Goal=   None    Shift=    0.000
 Gap=     0.502 Goal=   None    Shift=    0.000
 RMSDP=9.06D-05 MaxDP=4.93D-03 DE=-9.16D-04 OVMax= 5.82D-03

 Cycle   5  Pass 1  IDiag  1:
 RMSU=  3.85D-05    CP:  8.20D-01  2.17D+00  1.34D+00  1.22D+00
 FoFJK:  IHMeth= 1 ICntrl=     0 DoSepK=T KAlg= 1 I1Cent= 0 FoldK=F
 E= -40.8835785315252     Delta-E=       -0.000019791937 Rises=F Damp=F
 DIIS: error= 6.18D-05 at cycle   5 NSaved=   5.
 NSaved= 5 IEnMin= 5 EnMin= -40.8835785315252     IErMin= 5 ErrMin= 6.18D-05
 ErrMax= 6.18D-05 EMaxC= 1.00D-01 BMatC= 2.40D-07 BMatP= 2.22D-05
 IDIUse=1 WtCom= 1.00D+00 WtEn= 0.00D+00
 Coeff-Com:  0.610D-03 0.299D-02 0.123D-01-0.244D+00 0.123D+01
 Coeff:      0.610D-03 0.299D-02 0.123D-01-0.244D+00 0.123D+01
 Gap=     0.513 Goal=   None    Shift=    0.000
 Gap=     0.502 Goal=   None    Shift=    0.000
 RMSDP=1.85D-05 MaxDP=7.61D-04 DE=-1.98D-05 OVMax= 4.87D-04

 Cycle   6  Pass 1  IDiag  1:
 RMSU=  1.99D-06    CP:  8.20D-01  2.17D+00  1.33D+00  1.24D+00  1.43D+00
 FoFJK:  IHMeth= 1 ICntrl=     0 DoSepK=T KAlg= 1 I1Cent= 0 FoldK=F
 E= -40.8835787413053     Delta-E=       -0.000000209780 Rises=F Damp=F
 DIIS: error= 1.12D-05 at cycle   6 NSaved=   6.
 NSaved= 6 IEnMin= 6 EnMin= -40.8835787413053     IErMin= 6 ErrMin= 1.12D-05
 ErrMax= 1.12D-05 EMaxC= 1.00D-01 BMatC= 1.03D-08 BMatP= 2.40D-07
 IDIUse=1 WtCom= 1.00D+00 WtEn= 0.00D+00
 Coeff-Com: -0.695D-06-0.584D-03-0.749D-03 0.316D-01-0.265D+00 0.123D+01
 Coeff:     -0.695D-06-0.584D-03-0.749D-03 0.316D-01-0.265D+00 0.123D+01
 Gap=     0.513 Goal=   None    Shift=    0.000
 Gap=     0.502 Goal=   None    Shift=    0.000
 RMSDP=3.15D-06 MaxDP=1.25D-04 DE=-2.10D-07 OVMax= 8.36D-05

 Cycle   7  Pass 1  IDiag  1:
 RMSU=  4.25D-07    CP:  8.20D-01  2.17D+00  1.33D+00  1.24D+00  1.49D+00
                    CP:  1.41D+00
 FoFJK:  IHMeth= 1 ICntrl=     0 DoSepK=T KAlg= 1 I1Cent= 0 FoldK=F
 E= -40.8835787505142     Delta-E=       -0.000000009209 Rises=F Damp=F
 DIIS: error= 3.72D-06 at cycle   7 NSaved=   7.
 NSaved= 7 IEnMin= 7 EnMin= -40.8835787505142     IErMin= 7 ErrMin= 3.72D-06
 ErrMax= 3.72D-06 EMaxC= 1.00D-01 BMatC= 8.89D-10 BMatP= 1.03D-08
 IDIUse=1 WtCom= 1.00D+00 WtEn= 0.00D+00
 Coeff-Com: -0.426D-04-0.143D-03-0.737D-03 0.131D-01-0.578D-01-0.889D-01
 Coeff-Com:  0.113D+01
 Coeff:     -0.426D-04-0.143D-03-0.737D-03 0.131D-01-0.578D-01-0.889D-01
 Coeff:      0.113D+01
 Gap=     0.513 Goal=   None    Shift=    0.000
 Gap=     0.502 Goal=   None    Shift=    0.000
 RMSDP=4.89D-07 MaxDP=1.52D-05 DE=-9.21D-09 OVMax= 1.95D-05

 Cycle   8  Pass 1  IDiag  1:
 RMSU=  9.06D-08    CP:  8.20D-01  2.17D+00  1.33D+00  1.24D+00  1.50D+00
                    CP:  1.52D+00  1.36D+00
 FoFJK:  IHMeth= 1 ICntrl=     0 DoSepK=T KAlg= 1 I1Cent= 0 FoldK=F
 E= -40.8835787512503     Delta-E=       -0.000000000736 Rises=F Damp=F
 DIIS: error= 1.42D-06 at cycle   8 NSaved=   8.
 NSaved= 8 IEnMin= 8 EnMin= -40.8835787512503     IErMin= 8 ErrMin= 1.42D-06
 ErrMax= 1.42D-06 EMaxC= 1.00D-01 BMatC= 1.23D-10 BMatP= 8.89D-10
 IDIUse=1 WtCom= 1.00D+00 WtEn= 0.00D+00
 Coeff-Com:  0.163D-04 0.122D-03 0.443D-03-0.923D-02 0.521D-01-0.786D-01
 Coeff-Com: -0.481D+00 0.152D+01
 Coeff:      0.163D-04 0.122D-03 0.443D-03-0.923D-02 0.521D-01-0.786D-01
 Coeff:     -0.481D+00 0.152D+01
 Gap=     0.513 Goal=   None    Shift=    0.000
 Gap=     0.502 Goal=   None    Shift=    0.000
 RMSDP=1.47D-07 MaxDP=2.88D-06 DE=-7.36D-10 OVMax= 9.46D-06

 Cycle   9  Pass 1  IDiag  1:
 RMSU=  3.04D-08    CP:  8.20D-01  2.17D+00  1.33D+00  1.24D+00  1.50D+00
                    CP:  1.55D+00  1.51D+00  1.85D+00
 FoFJK:  IHMeth= 1 ICntrl=     0 DoSepK=T KAlg= 1 I1Cent= 0 FoldK=F
 E= -40.8835787513612     Delta-E=       -0.000000000111 Rises=F Damp=F
 DIIS: error= 3.51D-07 at cycle   9 NSaved=   9.
 NSaved= 9 IEnMin= 9 EnMin= -40.8835787513612     IErMin= 9 ErrMin= 3.51D-07
 ErrMax= 3.51D-07 EMaxC= 1.00D-01 BMatC= 6.34D-12 BMatP= 1.23D-10
 IDIUse=1 WtCom= 1.00D+00 WtEn= 0.00D+00
 Coeff-Com: -0.416D-07-0.236D-04-0.714D-04 0.165D-02-0.103D-01 0.313D-01
 Coeff-Com:  0.440D-01-0.433D+00 0.137D+01
 Coeff:     -0.416D-07-0.236D-04-0.714D-04 0.165D-02-0.103D-01 0.313D-01
 Coeff:      0.440D-01-0.433D+00 0.137D+01
 Gap=     0.513 Goal=   None    Shift=    0.000
 Gap=     0.502 Goal=   None    Shift=    0.000
 RMSDP=4.18D-08 MaxDP=1.02D-06 DE=-1.11D-10 OVMax= 2.09D-06

 Cycle  10  Pass 1  IDiag  1:
 RMSU=  9.18D-09    CP:  8.20D-01  2.17D+00  1.33D+00  1.24D+00  1.50D+00
                    CP:  1.54D+00  1.53D+00  2.09D+00  1.44D+00
 FoFJK:  IHMeth= 1 ICntrl=     0 DoSepK=T KAlg= 1 I1Cent= 0 FoldK=F
 E= -40.8835787513679     Delta-E=       -0.000000000007 Rises=F Damp=F
 DIIS: error= 5.89D-08 at cycle  10 NSaved=  10.
 NSaved=10 IEnMin=10 EnMin= -40.8835787513679     IErMin=10 ErrMin= 5.89D-08
 ErrMax= 5.89D-08 EMaxC= 1.00D-01 BMatC= 2.52D-13 BMatP= 6.34D-12
 IDIUse=1 WtCom= 1.00D+00 WtEn= 0.00D+00
 Coeff-Com: -0.537D-06 0.909D-05 0.201D-04-0.572D-03 0.372D-02-0.143D-01
 Coeff-Com: -0.551D-02 0.172D+00-0.695D+00 0.154D+01
 Coeff:     -0.537D-06 0.909D-05 0.201D-04-0.572D-03 0.372D-02-0.143D-01
 Coeff:     -0.551D-02 0.172D+00-0.695D+00 0.154D+01
 Gap=     0.513 Goal=   None    Shift=    0.000
 Gap=     0.502 Goal=   None    Shift=    0.000
 RMSDP=7.09D-09 MaxDP=1.23D-07 DE=-6.69D-12 OVMax= 3.22D-07

 SCF Done:  E(ULC-B+HF-LYP) =  -40.8835787514     A.U. after   10 cycles
             Convg  =    0.7086D-08             -V/T =  2.0051
 <Sx>= 0.0000 <Sy>= 0.0000 <Sz>= 0.5000 <S**2>= 0.7500 S= 0.5000
 <L.S>= 0.000000000000E+00
 KE= 4.067569973146D+01 PE=-1.237390754267D+02 EE= 2.738662988798D+01
 Annihilation of the first spin contaminant:
 S**2 before annihilation     0.7500,   after     0.7500
 Leave Link  502 at Wed Nov  3 01:30:39 2010, MaxMem=  786432000 cpu:     232.3
 (Enter /share/apps/G09A02/g09/l601.exe)
 Copying SCF densities to generalized density rwf, IOpCl= 1 IROHF=0.

 **********************************************************************

            Population analysis using the SCF density.

 **********************************************************************

 Alpha  occ. eigenvalues --  -10.11330  -0.85947  -0.52648  -0.52524  -0.52524
 Alpha  occ. eigenvalues --   -0.45005
 Alpha virt. eigenvalues --    0.06286   0.09653   0.09653   0.10690   0.22675
 Alpha virt. eigenvalues --    0.22675   0.22891   0.27304   0.36548   0.36834
 Alpha virt. eigenvalues --    0.36834   0.41862   0.41862   0.42790   0.62475
 Alpha virt. eigenvalues --    0.64706   0.64706   0.68967   0.68967   0.72073
 Alpha virt. eigenvalues --    0.74294   0.79973   0.80284   0.80284   0.93908
 Alpha virt. eigenvalues --    0.99182   0.99192   0.99192   1.10249   1.10250
 Alpha virt. eigenvalues --    1.25210   1.25210   1.26725   1.40980   1.40980
 Alpha virt. eigenvalues --    1.43684   1.69103   2.06619   2.06619   2.07846
 Alpha virt. eigenvalues --    2.07846   2.08352   2.33994   2.51459   2.78776
 Alpha virt. eigenvalues --    2.78776   2.80271   3.09004   3.09004   3.09015
 Alpha virt. eigenvalues --    3.43930   3.43930   3.45121   3.65199   3.65199
 Alpha virt. eigenvalues --    3.65340   3.80211   3.80211   3.88855   4.07945
 Alpha virt. eigenvalues --    4.31083   4.31083   4.32266   4.35662   4.35662
 Alpha virt. eigenvalues --    4.58743   4.58743   4.58750   5.01149   5.89380
 Alpha virt. eigenvalues --    5.89380   5.89412   7.30310   7.30310   7.91480
 Alpha virt. eigenvalues --    7.91480   7.92199  24.29266
  Beta  occ. eigenvalues --  -10.11322  -0.85923  -0.52519  -0.52519  -0.52516
  Beta virt. eigenvalues --   -0.02320   0.06563   0.09563   0.09564   0.11095
  Beta virt. eigenvalues --    0.22662   0.22662   0.23226   0.27279   0.36823
  Beta virt. eigenvalues --    0.36823   0.39874   0.41844   0.41844   0.45983
  Beta virt. eigenvalues --    0.63570   0.64735   0.64735   0.72093   0.73157
  Beta virt. eigenvalues --    0.73157   0.75037   0.80009   0.80286   0.80286
  Beta virt. eigenvalues --    0.95594   0.99182   0.99185   0.99185   1.10246
  Beta virt. eigenvalues --    1.10246   1.25207   1.25207   1.26767   1.40981
  Beta virt. eigenvalues --    1.40981   1.43624   1.69104   2.06628   2.06628
  Beta virt. eigenvalues --    2.07857   2.07857   2.08341   2.51285   2.55154
  Beta virt. eigenvalues --    2.78783   2.78783   2.80300   3.09018   3.09020
  Beta virt. eigenvalues --    3.09020   3.43938   3.43938   3.45124   3.65236
  Beta virt. eigenvalues --    3.65236   3.65376   3.95756   3.95756   4.03853
  Beta virt. eigenvalues --    4.08074   4.31085   4.31085   4.32480   4.35662
  Beta virt. eigenvalues --    4.35662   4.58747   4.58748   4.58753   5.01153
  Beta virt. eigenvalues --    5.89385   5.89385   5.89426   7.30333   7.30333
  Beta virt. eigenvalues --    7.91494   7.91494   7.92229  24.29276
          Condensed to atoms (all electrons):
              1          2          3          4          5          6
     1  C    5.062280   0.397097   0.401391   0.401391   0.401391   0.002572
     2  H    0.397097   0.491865  -0.017533  -0.017533  -0.017533  -0.000767
     3  H    0.401391  -0.017533   0.484006  -0.017118  -0.017118  -0.000056
     4  H    0.401391  -0.017533  -0.017118   0.484006  -0.017118  -0.000056
     5  H    0.401391  -0.017533  -0.017118  -0.017118   0.484006  -0.000056
     6  H    0.002572  -0.000767  -0.000056  -0.000056  -0.000056   0.995930
 Mulliken atomic charges:
              1
     1  C   -0.666123
     2  H    0.164405
     3  H    0.166428
     4  H    0.166428
     5  H    0.166428
     6  H    0.002434
 Sum of Mulliken atomic charges =   0.00000
 Mulliken charges with hydrogens summed into heavy atoms:
              1
     1  C    0.000000
 Sum of Mulliken charges with hydrogens summed into heavy atoms =   0.00000
          Atomic-Atomic Spin Densities.
              1          2          3          4          5          6
     1  C    0.012021   0.000472  -0.000310  -0.000310  -0.000310   0.002183
     2  H    0.000472  -0.011182   0.000745   0.000745   0.000745  -0.001444
     3  H   -0.000310   0.000745  -0.000144  -0.000161  -0.000161  -0.000044
     4  H   -0.000310   0.000745  -0.000161  -0.000144  -0.000161  -0.000044
     5  H   -0.000310   0.000745  -0.000161  -0.000161  -0.000144  -0.000044
     6  H    0.002183  -0.001444  -0.000044  -0.000044  -0.000044   0.995788
 Mulliken atomic spin densities:
              1
     1  C    0.013747
     2  H   -0.009920
     3  H   -0.000074
     4  H   -0.000074
     5  H   -0.000074
     6  H    0.996396
 Sum of Mulliken atomic spin densities =   1.00000
 Electronic spatial extent (au):  <R**2>=             94.6083
 Charge=              0.0000 electrons
 Dipole moment (field-independent basis, Debye):
    X=              0.0000    Y=              0.0000    Z=              0.0112  Tot=              0.0112
 Quadrupole moment (field-independent basis, Debye-Ang):
   XX=             -9.9512   YY=             -9.9512   ZZ=             -9.8480
   XY=              0.0000   XZ=              0.0000   YZ=              0.0000
 Traceless Quadrupole moment (field-independent basis, Debye-Ang):
   XX=             -0.0344   YY=             -0.0344   ZZ=              0.0687
   XY=              0.0000   XZ=              0.0000   YZ=              0.0000
 Octapole moment (field-independent basis, Debye-Ang**2):
  XXX=              0.6628  YYY=              0.0000  ZZZ=            -15.3846  XYY=             -0.6628
  XXY=              0.0000  XXZ=             -6.1123  XZZ=              0.0000  YZZ=              0.0000
  YYZ=             -6.1123  XYZ=              0.0000
 Hexadecapole moment (field-independent basis, Debye-Ang**3):
 XXXX=            -18.4950 YYYY=            -18.4950 ZZZZ=           -148.3420 XXXY=              0.0000
 XXXZ=             -0.4216 YYYX=              0.0000 YYYZ=              0.0000 ZZZX=              0.0000
 ZZZY=              0.0000 XXYY=             -6.1650 XXZZ=            -28.6748 YYZZ=            -28.6748
 XXYZ=              0.0000 YYXZ=              0.4216 ZZXY=              0.0000
 N-N= 1.479316705587D+01 E-N=-1.844322230796D+02  KE= 6.076782857320D+01
                          Isotropic Fermi Contact Couplings
        Atom                 a.u.       MegaHertz       Gauss      10(-4) cm-1
     1  C(13)              0.00154       1.73301       0.61838       0.57807
     2  H(1)               0.00025       1.10327       0.39367       0.36801
     3  H(1)              -0.00001      -0.06258      -0.02233      -0.02087
     4  H(1)              -0.00001      -0.06258      -0.02233      -0.02087
     5  H(1)              -0.00001      -0.06258      -0.02233      -0.02087
     6  H(1)               0.28622    1279.38239     456.51543     426.75603
 --------------------------------------------------------
       Center         ----  Spin Dipole Couplings  ----
                      3XX-RR        3YY-RR        3ZZ-RR
 --------------------------------------------------------
     1   Atom       -0.005212     -0.005212      0.010424
     2   Atom       -0.007088     -0.007088      0.014176
     3   Atom       -0.001130     -0.001967      0.003097
     4   Atom       -0.001758     -0.001339      0.003097
     5   Atom       -0.001758     -0.001339      0.003097
     6   Atom        0.000033      0.000033     -0.000066
 --------------------------------------------------------
                        XY            XZ            YZ
 --------------------------------------------------------
     1   Atom        0.000000      0.000000      0.000000
     2   Atom        0.000000      0.000000      0.000000
     3   Atom        0.000000     -0.001291      0.000000
     4   Atom        0.000362      0.000645      0.001118
     5   Atom       -0.000362      0.000645     -0.001118
     6   Atom        0.000000      0.000000      0.000000
 --------------------------------------------------------


 ---------------------------------------------------------------------------------
              Anisotropic Spin Dipole Couplings in Principal Axis System
 ---------------------------------------------------------------------------------

       Atom             a.u.   MegaHertz   Gauss  10(-4) cm-1        Axes

              Baa    -0.0052    -0.699    -0.250    -0.233  0.0000  1.0000  0.0000
     1 C(13)  Bbb    -0.0052    -0.699    -0.250    -0.233  1.0000  0.0000  0.0000
              Bcc     0.0104     1.399     0.499     0.467  0.0000  0.0000  1.0000
 
              Baa    -0.0071    -3.782    -1.349    -1.261  0.0000  1.0000  0.0000
     2 H(1)   Bbb    -0.0071    -3.782    -1.349    -1.261  1.0000  0.0000  0.0000
              Bcc     0.0142     7.563     2.699     2.523  0.0000  0.0000  1.0000
 
              Baa    -0.0020    -1.049    -0.374    -0.350  0.0000  1.0000  0.0000
     3 H(1)   Bbb    -0.0015    -0.797    -0.284    -0.266  0.9627  0.0000  0.2707
              Bcc     0.0035     1.846     0.659     0.616 -0.2707  0.0000  0.9627
 
              Baa    -0.0020    -1.049    -0.374    -0.350  0.8660 -0.5000  0.0000
     4 H(1)   Bbb    -0.0015    -0.797    -0.284    -0.266  0.4813  0.8337 -0.2707
              Bcc     0.0035     1.846     0.659     0.616  0.1354  0.2344  0.9627
 
              Baa    -0.0020    -1.049    -0.374    -0.350  0.8660  0.5000  0.0000
     5 H(1)   Bbb    -0.0015    -0.797    -0.284    -0.266 -0.4813  0.8337  0.2707
              Bcc     0.0035     1.846     0.659     0.616  0.1354 -0.2344  0.9627
 
              Baa    -0.0001    -0.035    -0.013    -0.012  0.0000  0.0000  1.0000
     6 H(1)   Bbb     0.0000     0.018     0.006     0.006  1.0000  0.0000  0.0000
              Bcc     0.0000     0.018     0.006     0.006  0.0000  1.0000  0.0000
 

 ---------------------------------------------------------------------------------

 No NMR shielding tensors so no spin-rotation constants.
 Leave Link  601 at Wed Nov  3 01:30:39 2010, MaxMem=  786432000 cpu:       3.8
 (Enter /share/apps/G09A02/g09/l9999.exe)
 1\1\GINC-COMPUTE-0-7\SP\ULC-BLYP\6-311+G(3df,2p)\C1H5(2)\WENXINZY\03-N
 ov-2010\0\\#p lc-blyp/6-311+g(3df,2p) nosymm scf=tight\\41 H_CH4\\0,2\
 C\H,1,1.089269\H,1,1.0892989,2,109.4687684\H,1,1.0892989,2,109.4687684
 ,3,120.,0\H,1,1.0892989,2,109.4687684,3,-120.,0\H,2,2.8544527,1,180.,3
 ,0.,0\\Version=EM64L-G09RevA.02\HF=-40.8835788\S2=0.750029\S2-1=0.\S2A
 =0.75\RMSD=7.086e-09\Dipole=0.0000002,0.,0.00442\Quadrupole=-0.0255533
 ,-0.0255508,0.0511041,0.,-0.0000008,0.\PG=C03V [C3(H1H1C1),3SGV(H1)]\\
 @


 IT IS A QUALITY OF REVOLUTIONS NOT TO GO BY OLD LINES OR OLD LAWS,
 BUT TO BREAK UP BOTH, AND MAKE NEW ONES.
                                              -- A. LINCOLN (1848)
 Job cpu time:  0 days  0 hours  4 minutes  6.2 seconds.
 File lengths (MBytes):  RWF=      9 Int=      0 D2E=      0 Chk=      1 Scr=      1
 Normal termination of Gaussian 09 at Wed Nov  3 01:30:40 2010.
