 Entering Gaussian System, Link 0=/share/apps/G09A02/g09/g09
 Input=./.script12553/Job_H2_CH3_31.com
 Output=./.script12553/Job_H2_CH3_31.log
 Initial command:
 /share/apps/G09A02/g09/l1.exe /state/partition1/wenxinzy/scratch/Gau-20719.inp -scrdir=/state/partition1/wenxinzy/scratch/
 Default is to use a total of   8 processors:
                                8 via shared-memory
                                1 via Linda
 Entering Link 1 = /share/apps/G09A02/g09/l1.exe PID=     20720.
  
 Copyright (c) 1988,1990,1992,1993,1995,1998,2003,2009, Gaussian, Inc.
                  All Rights Reserved.
  
 This is part of the Gaussian(R) 09 program.  It is based on
 the Gaussian(R) 03 system (copyright 2003, Gaussian, Inc.),
 the Gaussian(R) 98 system (copyright 1998, Gaussian, Inc.),
 the Gaussian(R) 94 system (copyright 1995, Gaussian, Inc.),
 the Gaussian 92(TM) system (copyright 1992, Gaussian, Inc.),
 the Gaussian 90(TM) system (copyright 1990, Gaussian, Inc.),
 the Gaussian 88(TM) system (copyright 1988, Gaussian, Inc.),
 the Gaussian 86(TM) system (copyright 1986, Carnegie Mellon
 University), and the Gaussian 82(TM) system (copyright 1983,
 Carnegie Mellon University). Gaussian is a federally registered
 trademark of Gaussian, Inc.
  
 This software contains proprietary and confidential information,
 including trade secrets, belonging to Gaussian, Inc.
  
 This software is provided under written license and may be
 used, copied, transmitted, or stored only in accord with that
 written license.
  
 The following legend is applicable only to US Government
 contracts under FAR:
  
                    RESTRICTED RIGHTS LEGEND
  
 Use, reproduction and disclosure by the US Government is
 subject to restrictions as set forth in subparagraphs (a)
 and (c) of the Commercial Computer Software - Restricted
 Rights clause in FAR 52.227-19.
  
 Gaussian, Inc.
 340 Quinnipiac St., Bldg. 40, Wallingford CT 06492
  
  
 ---------------------------------------------------------------
 Warning -- This program may not be used in any manner that
 competes with the business of Gaussian, Inc. or will provide
 assistance to any competitor of Gaussian, Inc.  The licensee
 of this program is prohibited from giving any competitor of
 Gaussian, Inc. access to this program.  By using this program,
 the user acknowledges that Gaussian, Inc. is engaged in the
 business of creating and licensing software in the field of
 computational chemistry and represents and warrants to the
 licensee that it is not a competitor of Gaussian, Inc. and that
 it will not use this program in any manner prohibited above.
 ---------------------------------------------------------------
  

 Cite this work as:
 Gaussian 09, Revision A.02,
 M. J. Frisch, G. W. Trucks, H. B. Schlegel, G. E. Scuseria, 
 M. A. Robb, J. R. Cheeseman, G. Scalmani, V. Barone, B. Mennucci, 
 G. A. Petersson, H. Nakatsuji, M. Caricato, X. Li, H. P. Hratchian, 
 A. F. Izmaylov, J. Bloino, G. Zheng, J. L. Sonnenberg, M. Hada, 
 M. Ehara, K. Toyota, R. Fukuda, J. Hasegawa, M. Ishida, T. Nakajima, 
 Y. Honda, O. Kitao, H. Nakai, T. Vreven, J. A. Montgomery, Jr., 
 J. E. Peralta, F. Ogliaro, M. Bearpark, J. J. Heyd, E. Brothers, 
 K. N. Kudin, V. N. Staroverov, R. Kobayashi, J. Normand, 
 K. Raghavachari, A. Rendell, J. C. Burant, S. S. Iyengar, J. Tomasi, 
 M. Cossi, N. Rega, J. M. Millam, M. Klene, J. E. Knox, J. B. Cross, 
 V. Bakken, C. Adamo, J. Jaramillo, R. Gomperts, R. E. Stratmann, 
 O. Yazyev, A. J. Austin, R. Cammi, C. Pomelli, J. W. Ochterski, 
 R. L. Martin, K. Morokuma, V. G. Zakrzewski, G. A. Voth, 
 P. Salvador, J. J. Dannenberg, S. Dapprich, A. D. Daniels, 
 O. Farkas, J. B. Foresman, J. V. Ortiz, J. Cioslowski, 
 and D. J. Fox, Gaussian, Inc., Wallingford CT, 2009.
 
 ******************************************
 Gaussian 09:  EM64L-G09RevA.02 11-Jun-2009
                 3-Nov-2010 
 ******************************************
 %chk=/state/partition1/wenxinzy/scratch/H2_CH3_31.chk
 %nproc=8
 Will use up to    8 processors via shared memory.
 %mem=6000mb
 -------------------------------------------
 #p lc-blyp/6-311+g(3df,2p) nosymm scf=tight
 -------------------------------------------
 1/38=1/1;
 2/12=2,15=1,17=6,18=5,40=1/2;
 3/5=4,6=6,7=216,11=2,16=1,25=1,30=1,74=1000402/1,2,3;
 4//1;
 5/5=2,32=2,38=5/2;
 6/7=2,8=2,9=2,10=2,28=1/1;
 99/5=1,9=1/99;
 Leave Link    1 at Wed Nov  3 01:53:36 2010, MaxMem=  786432000 cpu:       0.3
 (Enter /share/apps/G09A02/g09/l101.exe)
 ---------
 32 H2+CH3
 ---------
 Symbolic Z-matrix:
 Charge =  0 Multiplicity = 2
 C
 H1                   C    R1
 H2                   C    R2       H1   A1
 H3                   C    R2       H1   A1       H2    120.     0
 H4                   C    R2       H1   A1       H2   -120.     0
 H5                   H1   R3       C     180.     H2    0.       0
       Variables:
  R1                    3.02124                  
  R2                    1.07923                  
  A1                   90.20283                  
  R3                    0.74352                  
 
 NAtoms=      6 NQM=      6 NQMF=      0 NMic=      0 NMicF=      0 NTot=      6.
                    Isotopes and Nuclear Properties:
 (Nuclear quadrupole moments (NQMom) in fm**2, nuclear magnetic moments (NMagM)
  in nuclear magnetons)

  Atom         1           2           3           4           5           6
 IAtWgt=          12           1           1           1           1           1
 AtmWgt=  12.0000000   1.0078250   1.0078250   1.0078250   1.0078250   1.0078250
 NucSpn=           0           1           1           1           1           1
 AtZEff=   0.0000000   0.0000000   0.0000000   0.0000000   0.0000000   0.0000000
 NQMom=    0.0000000   0.0000000   0.0000000   0.0000000   0.0000000   0.0000000
 NMagM=    0.0000000   2.7928460   2.7928460   2.7928460   2.7928460   2.7928460
 Leave Link  101 at Wed Nov  3 01:53:36 2010, MaxMem=  786432000 cpu:       1.0
 (Enter /share/apps/G09A02/g09/l202.exe)
                          Input orientation:                          
 ---------------------------------------------------------------------
 Center     Atomic      Atomic             Coordinates (Angstroms)
 Number     Number       Type             X           Y           Z
 ---------------------------------------------------------------------
      1          6           0        0.000000    0.000000    0.000000
      2          1           0        0.000000    0.000000    3.021240
      3          1           0        1.079224    0.000000   -0.003821
      4          1           0       -0.539612   -0.934635   -0.003821
      5          1           0       -0.539612    0.934635   -0.003821
      6          1           0        0.000000    0.000000    3.764763
 ---------------------------------------------------------------------
                    Distance matrix (angstroms):
                    1          2          3          4          5
     1  C    0.000000
     2  H    3.021240   0.000000
     3  H    1.079231   3.211808   0.000000
     4  H    1.079231   3.211808   1.869271   0.000000
     5  H    1.079231   3.211808   1.869271   1.869271   0.000000
     6  H    3.764763   0.743524   3.920070   3.920070   3.920070
                    6
     6  H    0.000000
 Symmetry turned off by external request.
 Stoichiometry    CH5(2)
 Framework group  C3V[C3(HHC),3SGV(H)]
 Deg. of freedom     4
 Full point group                 C3V     NOp   6
 Rotational constants (GHZ):    143.5118156     22.4526315     22.4526315
 Leave Link  202 at Wed Nov  3 01:53:36 2010, MaxMem=  786432000 cpu:       0.1
 (Enter /share/apps/G09A02/g09/l301.exe)
 Standard basis: 6-311+G(3df,2p) (5D, 7F)
 Ernie: Thresh=  0.10000D-02 Tol=  0.10000D-05 Strict=F.
 Integral buffers will be    131072 words long.
 Raffenetti 2 integral format.
 Two-electron integral symmetry is turned off.
    84 basis functions,   113 primitive gaussians,    90 cartesian basis functions
     6 alpha electrons        5 beta electrons
       nuclear repulsion energy        13.1804334503 Hartrees.
 IExCor=10402 DFT=T Ex=LC-B+HF Corr=LYP ExCW=0 ScaHFX=  1.000000
 ScaDFX=  1.000000  1.000000  1.000000  1.000000 ScalE2=  1.000000  1.000000
 IRadAn=      0 IRanWt=     -1 IRanGd=            0 ICorTp=0
  HFx wShort=  0.000000 wLong=  0.470000 cFull=  0.000000 cShort=  0.000000 cLong=  1.000000
  DFx wShort=  0.000000 wLong=  0.470000 cFull=  0.000000 cShort=  0.000000 cLong=  1.000000
 NAtoms=    6 NActive=    6 NUniq=    6 SFac= 7.50D-01 NAtFMM=   80 NAOKFM=F Big=F
 Leave Link  301 at Wed Nov  3 01:53:37 2010, MaxMem=  786432000 cpu:       0.7
 (Enter /share/apps/G09A02/g09/l302.exe)
 NPDir=0 NMtPBC=     1 NCelOv=     1 NCel=       1 NClECP=     1 NCelD=      1
         NCelK=      1 NCelE2=     1 NClLst=     1 CellRange=     0.0.
 One-electron integrals computed using PRISM.
 NBasis=    84 RedAO= T  NBF=    84
 NBsUse=    84 1.00D-06 NBFU=    84
 Precomputing XC quadrature grid using
 IXCGrd= 2 IRadAn=           0 IRanWt=          -1 IRanGd=           0 AccXCQ= 1.00D-10.
 NRdTot=     384 NPtTot=       48302 NUsed=       51081 NTot=       51113
 NSgBfM=    90    90    90    90    90 NAtAll=     6     6.
 Leave Link  302 at Wed Nov  3 01:53:37 2010, MaxMem=  786432000 cpu:       2.5
 (Enter /share/apps/G09A02/g09/l303.exe)
 DipDrv:  MaxL=1.
 Leave Link  303 at Wed Nov  3 01:53:37 2010, MaxMem=  786432000 cpu:       0.9
 (Enter /share/apps/G09A02/g09/l401.exe)
 Harris functional with IExCor=10402 diagonalized for initial guess.
 ExpMin= 4.38D-02 ExpMax= 4.56D+03 ExpMxC= 6.82D+02 IAcc=2 IRadAn=         0 AccDes= 0.00D+00
 HarFok:  IExCor=10402 AccDes= 0.00D+00 IRadAn=         0 IDoV= 1
 ScaDFX=  1.000000  1.000000  1.000000  1.000000
 FoFCou: FMM=F IPFlag=           0 FMFlag=      100000 FMFlg1=           0
         NFxFlg=           0 DoJE=T BraDBF=F KetDBF=T FulRan=T
         Omega=  0.000000  0.000000  1.000000  0.000000  0.000000 ICntrl=     500 IOpCl=  0
         NMat0=    1 NMatS0=    1 NMatT0=    0 NMatD0=    1 NMtDS0=    0 NMtDT0=    0
         I1Cent=           4 NGrid=           0.
 Symmetry not used in FoFCou.
 Harris En= -38.5361375868390    
 Initial guess <Sx>= 0.0000 <Sy>= 0.0000 <Sz>= 0.5000 <S**2>= 0.7500 S= 0.5000
 Leave Link  401 at Wed Nov  3 01:53:38 2010, MaxMem=  786432000 cpu:       3.6
 (Enter /share/apps/G09A02/g09/l502.exe)
 UHF open shell SCF:
 Requested convergence on RMS density matrix=1.00D-08 within 128 cycles.
 Requested convergence on MAX density matrix=1.00D-06.
 Requested convergence on             energy=1.00D-06.
 No special actions if energy rises.
 Using DIIS extrapolation, IDIIS=  1040.
 Two-electron integral symmetry not used.
        51014 words used for storage of precomputed grid.
 IEnd=       94732 IEndB=       94732 NGot=   786432000 MDV=   786362099
 LenX=   786362099 LenY=   786353558
 Fock matrices will be formed incrementally for  20 cycles.

 Cycle   1  Pass 1  IDiag  1:
 FoFJK:  IHMeth= 1 ICntrl=     0 DoSepK=T KAlg= 1 I1Cent= 0 FoldK=F
 FoFCou: FMM=F IPFlag=           0 FMFlag=      100000 FMFlg1=           0
         NFxFlg=           0 DoJE=T BraDBF=F KetDBF=F FulRan=T
         Omega=  0.000000  0.000000  1.000000  0.000000  0.000000 ICntrl=     500 IOpCl=  0
         NMat0=    1 NMatS0=    1 NMatT0=    0 NMatD0=    1 NMtDS0=    0 NMtDT0=    0
         I1Cent=           0 NGrid=           0.
 Symmetry not used in FoFCou.
 E= -40.8563006309114    
 DIIS: error= 2.09D-02 at cycle   1 NSaved=   1.
 NSaved= 1 IEnMin= 1 EnMin= -40.8563006309114     IErMin= 1 ErrMin= 2.09D-02
 ErrMax= 2.09D-02 EMaxC= 1.00D-01 BMatC= 6.04D-02 BMatP= 6.04D-02
 IDIUse=3 WtCom= 7.91D-01 WtEn= 2.09D-01
 Coeff-Com:  0.100D+01
 Coeff-En:   0.100D+01
 Coeff:      0.100D+01
 Gap=     0.390 Goal=   None    Shift=    0.000
 Gap=     0.621 Goal=   None    Shift=    0.000
 GapD=    0.390 DampG=1.000 DampE=0.500 DampFc=0.5000 IDamp=-1.
 Damping current iteration by 5.00D-01
 RMSDP=1.46D-03 MaxDP=6.45D-02              OVMax= 5.26D-02

 Cycle   2  Pass 1  IDiag  1:
 RMSU=  5.35D-04    CP:  9.82D-01
 FoFJK:  IHMeth= 1 ICntrl=     0 DoSepK=T KAlg= 1 I1Cent= 0 FoldK=F
 E= -40.8649181755997     Delta-E=       -0.008617544688 Rises=F Damp=T
 DIIS: error= 9.39D-03 at cycle   2 NSaved=   2.
 NSaved= 2 IEnMin= 2 EnMin= -40.8649181755997     IErMin= 2 ErrMin= 9.39D-03
 ErrMax= 9.39D-03 EMaxC= 1.00D-01 BMatC= 9.83D-03 BMatP= 6.04D-02
 IDIUse=3 WtCom= 9.06D-01 WtEn= 9.39D-02
 Coeff-Com: -0.435D+00 0.144D+01
 Coeff-En:   0.000D+00 0.100D+01
 Coeff:     -0.394D+00 0.139D+01
 Gap=     0.430 Goal=   None    Shift=    0.000
 Gap=     0.565 Goal=   None    Shift=    0.000
 RMSDP=7.93D-04 MaxDP=2.48D-02 DE=-8.62D-03 OVMax= 4.38D-02

 Cycle   3  Pass 1  IDiag  1:
 RMSU=  4.64D-04    CP:  9.76D-01  1.88D+00
 FoFJK:  IHMeth= 1 ICntrl=     0 DoSepK=T KAlg= 1 I1Cent= 0 FoldK=F
 E= -40.8746153546583     Delta-E=       -0.009697179059 Rises=F Damp=F
 DIIS: error= 2.89D-03 at cycle   3 NSaved=   3.
 NSaved= 3 IEnMin= 3 EnMin= -40.8746153546583     IErMin= 3 ErrMin= 2.89D-03
 ErrMax= 2.89D-03 EMaxC= 1.00D-01 BMatC= 7.23D-04 BMatP= 9.83D-03
 IDIUse=3 WtCom= 9.71D-01 WtEn= 2.89D-02
 Coeff-Com: -0.659D-01-0.653D-01 0.113D+01
 Coeff-En:   0.000D+00 0.000D+00 0.100D+01
 Coeff:     -0.640D-01-0.635D-01 0.113D+01
 Gap=     0.433 Goal=   None    Shift=    0.000
 Gap=     0.563 Goal=   None    Shift=    0.000
 RMSDP=2.69D-04 MaxDP=1.02D-02 DE=-9.70D-03 OVMax= 2.23D-02

 Cycle   4  Pass 1  IDiag  1:
 RMSU=  7.07D-05    CP:  9.73D-01  2.14D+00  1.33D+00
 FoFJK:  IHMeth= 1 ICntrl=     0 DoSepK=T KAlg= 1 I1Cent= 0 FoldK=F
 E= -40.8751511077825     Delta-E=       -0.000535753124 Rises=F Damp=F
 DIIS: error= 1.32D-03 at cycle   4 NSaved=   4.
 NSaved= 4 IEnMin= 4 EnMin= -40.8751511077825     IErMin= 4 ErrMin= 1.32D-03
 ErrMax= 1.32D-03 EMaxC= 1.00D-01 BMatC= 5.70D-05 BMatP= 7.23D-04
 IDIUse=3 WtCom= 9.87D-01 WtEn= 1.32D-02
 Coeff-Com:  0.347D-01-0.543D-01-0.360D+00 0.138D+01
 Coeff-En:   0.000D+00 0.000D+00 0.000D+00 0.100D+01
 Coeff:      0.342D-01-0.536D-01-0.356D+00 0.137D+01
 Gap=     0.435 Goal=   None    Shift=    0.000
 Gap=     0.563 Goal=   None    Shift=    0.000
 RMSDP=1.09D-04 MaxDP=4.22D-03 DE=-5.36D-04 OVMax= 9.92D-03

 Cycle   5  Pass 1  IDiag  1:
 RMSU=  1.37D-05    CP:  9.72D-01  2.22D+00  1.46D+00  1.68D+00
 FoFJK:  IHMeth= 1 ICntrl=     0 DoSepK=T KAlg= 1 I1Cent= 0 FoldK=F
 E= -40.8752149800493     Delta-E=       -0.000063872267 Rises=F Damp=F
 DIIS: error= 2.33D-04 at cycle   5 NSaved=   5.
 NSaved= 5 IEnMin= 5 EnMin= -40.8752149800493     IErMin= 5 ErrMin= 2.33D-04
 ErrMax= 2.33D-04 EMaxC= 1.00D-01 BMatC= 3.60D-06 BMatP= 5.70D-05
 IDIUse=3 WtCom= 9.98D-01 WtEn= 2.33D-03
 Coeff-Com: -0.690D-02 0.223D-01 0.719D-01-0.537D+00 0.145D+01
 Coeff-En:   0.000D+00 0.000D+00 0.000D+00 0.000D+00 0.100D+01
 Coeff:     -0.688D-02 0.222D-01 0.717D-01-0.535D+00 0.145D+01
 Gap=     0.435 Goal=   None    Shift=    0.000
 Gap=     0.563 Goal=   None    Shift=    0.000
 RMSDP=2.35D-05 MaxDP=7.24D-04 DE=-6.39D-05 OVMax= 1.54D-03

 Cycle   6  Pass 1  IDiag  1:
 RMSU=  4.12D-06    CP:  9.72D-01  2.22D+00  1.47D+00  1.87D+00  1.70D+00
 FoFJK:  IHMeth= 1 ICntrl=     0 DoSepK=T KAlg= 1 I1Cent= 0 FoldK=F
 E= -40.8752182752619     Delta-E=       -0.000003295213 Rises=F Damp=F
 DIIS: error= 4.13D-05 at cycle   6 NSaved=   6.
 NSaved= 6 IEnMin= 6 EnMin= -40.8752182752619     IErMin= 6 ErrMin= 4.13D-05
 ErrMax= 4.13D-05 EMaxC= 1.00D-01 BMatC= 1.91D-07 BMatP= 3.60D-06
 IDIUse=1 WtCom= 1.00D+00 WtEn= 0.00D+00
 Coeff-Com:  0.410D-04-0.410D-02-0.104D-01 0.133D+00-0.540D+00 0.142D+01
 Coeff:      0.410D-04-0.410D-02-0.104D-01 0.133D+00-0.540D+00 0.142D+01
 Gap=     0.435 Goal=   None    Shift=    0.000
 Gap=     0.563 Goal=   None    Shift=    0.000
 RMSDP=4.78D-06 MaxDP=1.00D-04 DE=-3.30D-06 OVMax= 2.35D-04

 Cycle   7  Pass 1  IDiag  1:
 RMSU=  1.24D-06    CP:  9.72D-01  2.22D+00  1.47D+00  1.87D+00  1.84D+00
                    CP:  1.78D+00
 FoFJK:  IHMeth= 1 ICntrl=     0 DoSepK=T KAlg= 1 I1Cent= 0 FoldK=F
 E= -40.8752184540349     Delta-E=       -0.000000178773 Rises=F Damp=F
 DIIS: error= 1.25D-05 at cycle   7 NSaved=   7.
 NSaved= 7 IEnMin= 7 EnMin= -40.8752184540349     IErMin= 7 ErrMin= 1.25D-05
 ErrMax= 1.25D-05 EMaxC= 1.00D-01 BMatC= 1.30D-08 BMatP= 1.91D-07
 IDIUse=1 WtCom= 1.00D+00 WtEn= 0.00D+00
 Coeff-Com:  0.820D-03-0.133D-02-0.283D-02 0.128D-01 0.651D-02-0.336D+00
 Coeff-Com:  0.132D+01
 Coeff:      0.820D-03-0.133D-02-0.283D-02 0.128D-01 0.651D-02-0.336D+00
 Coeff:      0.132D+01
 Gap=     0.435 Goal=   None    Shift=    0.000
 Gap=     0.563 Goal=   None    Shift=    0.000
 RMSDP=1.53D-06 MaxDP=3.53D-05 DE=-1.79D-07 OVMax= 7.60D-05

 Cycle   8  Pass 1  IDiag  1:
 RMSU=  2.68D-07    CP:  9.72D-01  2.22D+00  1.47D+00  1.87D+00  1.86D+00
                    CP:  2.03D+00  1.51D+00
 FoFJK:  IHMeth= 1 ICntrl=     0 DoSepK=T KAlg= 1 I1Cent= 0 FoldK=F
 E= -40.8752184658023     Delta-E=       -0.000000011767 Rises=F Damp=F
 DIIS: error= 1.47D-06 at cycle   8 NSaved=   8.
 NSaved= 8 IEnMin= 8 EnMin= -40.8752184658023     IErMin= 8 ErrMin= 1.47D-06
 ErrMax= 1.47D-06 EMaxC= 1.00D-01 BMatC= 3.21D-10 BMatP= 1.30D-08
 IDIUse=1 WtCom= 1.00D+00 WtEn= 0.00D+00
 Coeff-Com: -0.180D-04 0.244D-03 0.713D-03-0.796D-02 0.294D-01-0.604D-01
 Coeff-Com: -0.521D-01 0.109D+01
 Coeff:     -0.180D-04 0.244D-03 0.713D-03-0.796D-02 0.294D-01-0.604D-01
 Coeff:     -0.521D-01 0.109D+01
 Gap=     0.435 Goal=   None    Shift=    0.000
 Gap=     0.563 Goal=   None    Shift=    0.000
 RMSDP=2.24D-07 MaxDP=7.62D-06 DE=-1.18D-08 OVMax= 7.62D-06

 Cycle   9  Pass 1  IDiag  1:
 RMSU=  3.98D-08    CP:  9.72D-01  2.22D+00  1.47D+00  1.87D+00  1.86D+00
                    CP:  2.05D+00  1.60D+00  1.33D+00
 FoFJK:  IHMeth= 1 ICntrl=     0 DoSepK=T KAlg= 1 I1Cent= 0 FoldK=F
 E= -40.8752184659899     Delta-E=       -0.000000000188 Rises=F Damp=F
 DIIS: error= 6.15D-07 at cycle   9 NSaved=   9.
 NSaved= 9 IEnMin= 9 EnMin= -40.8752184659899     IErMin= 9 ErrMin= 6.15D-07
 ErrMax= 6.15D-07 EMaxC= 1.00D-01 BMatC= 1.87D-11 BMatP= 3.21D-10
 IDIUse=1 WtCom= 1.00D+00 WtEn= 0.00D+00
 Coeff-Com: -0.347D-04 0.769D-05-0.794D-04 0.131D-02-0.684D-02 0.262D-01
 Coeff-Com: -0.329D-01-0.241D+00 0.125D+01
 Coeff:     -0.347D-04 0.769D-05-0.794D-04 0.131D-02-0.684D-02 0.262D-01
 Coeff:     -0.329D-01-0.241D+00 0.125D+01
 Gap=     0.435 Goal=   None    Shift=    0.000
 Gap=     0.563 Goal=   None    Shift=    0.000
 RMSDP=5.39D-08 MaxDP=1.41D-06 DE=-1.88D-10 OVMax= 2.78D-06

 Cycle  10  Pass 1  IDiag  1:
 RMSU=  1.41D-08    CP:  9.72D-01  2.22D+00  1.47D+00  1.87D+00  1.86D+00
                    CP:  2.05D+00  1.61D+00  1.40D+00  1.48D+00
 FoFJK:  IHMeth= 1 ICntrl=     0 DoSepK=T KAlg= 1 I1Cent= 0 FoldK=F
 E= -40.8752184660048     Delta-E=       -0.000000000015 Rises=F Damp=F
 DIIS: error= 2.97D-07 at cycle  10 NSaved=  10.
 NSaved=10 IEnMin=10 EnMin= -40.8752184660048     IErMin=10 ErrMin= 2.97D-07
 ErrMax= 2.97D-07 EMaxC= 1.00D-01 BMatC= 2.74D-12 BMatP= 1.87D-11
 IDIUse=1 WtCom= 1.00D+00 WtEn= 0.00D+00
 Coeff-Com:  0.243D-04-0.266D-04-0.405D-05-0.148D-03 0.171D-02-0.104D-01
 Coeff-Com:  0.216D-01 0.596D-01-0.678D+00 0.161D+01
 Coeff:      0.243D-04-0.266D-04-0.405D-05-0.148D-03 0.171D-02-0.104D-01
 Coeff:      0.216D-01 0.596D-01-0.678D+00 0.161D+01
 Gap=     0.435 Goal=   None    Shift=    0.000
 Gap=     0.563 Goal=   None    Shift=    0.000
 RMSDP=2.10D-08 MaxDP=5.90D-07 DE=-1.49D-11 OVMax= 1.50D-06

 Cycle  11  Pass 1  IDiag  1:
 RMSU=  6.10D-09    CP:  9.72D-01  2.22D+00  1.47D+00  1.87D+00  1.86D+00
                    CP:  2.05D+00  1.61D+00  1.41D+00  1.68D+00  1.79D+00
 FoFJK:  IHMeth= 1 ICntrl=     0 DoSepK=T KAlg= 1 I1Cent= 0 FoldK=F
 E= -40.8752184660089     Delta-E=       -0.000000000004 Rises=F Damp=F
 DIIS: error= 9.80D-08 at cycle  11 NSaved=  11.
 NSaved=11 IEnMin=11 EnMin= -40.8752184660089     IErMin=11 ErrMin= 9.80D-08
 ErrMax= 9.80D-08 EMaxC= 1.00D-01 BMatC= 2.98D-13 BMatP= 2.74D-12
 IDIUse=1 WtCom= 1.00D+00 WtEn= 0.00D+00
 Coeff-Com: -0.806D-05 0.130D-04 0.103D-04-0.101D-03 0.100D-03 0.143D-02
 Coeff-Com: -0.607D-02 0.452D-02 0.143D+00-0.722D+00 0.158D+01
 Coeff:     -0.806D-05 0.130D-04 0.103D-04-0.101D-03 0.100D-03 0.143D-02
 Coeff:     -0.607D-02 0.452D-02 0.143D+00-0.722D+00 0.158D+01
 Gap=     0.435 Goal=   None    Shift=    0.000
 Gap=     0.563 Goal=   None    Shift=    0.000
 RMSDP=8.43D-09 MaxDP=2.80D-07 DE=-4.18D-12 OVMax= 6.22D-07

 SCF Done:  E(ULC-B+HF-LYP) =  -40.8752184660     A.U. after   11 cycles
             Convg  =    0.8427D-08             -V/T =  2.0050
 <Sx>= 0.0000 <Sy>= 0.0000 <Sz>= 0.5000 <S**2>= 0.7536 S= 0.5018
 <L.S>= 0.000000000000E+00
 KE= 4.067354445112D+01 PE=-1.204116139417D+02 EE= 2.568241757427D+01
 Annihilation of the first spin contaminant:
 S**2 before annihilation     0.7536,   after     0.7500
 Leave Link  502 at Wed Nov  3 01:54:10 2010, MaxMem=  786432000 cpu:     255.3
 (Enter /share/apps/G09A02/g09/l601.exe)
 Copying SCF densities to generalized density rwf, IOpCl= 1 IROHF=0.

 **********************************************************************

            Population analysis using the SCF density.

 **********************************************************************

 Alpha  occ. eigenvalues --  -10.14730  -0.85396  -0.56403  -0.55880  -0.55880
 Alpha  occ. eigenvalues --   -0.36629
 Alpha virt. eigenvalues --    0.06883   0.09232   0.09232   0.12803   0.16245
 Alpha virt. eigenvalues --    0.23389   0.23389   0.24100   0.35917   0.38805
 Alpha virt. eigenvalues --    0.38806   0.40348   0.40348   0.47270   0.62898
 Alpha virt. eigenvalues --    0.62898   0.63348   0.63717   0.66079   0.66079
 Alpha virt. eigenvalues --    0.71691   0.81037   0.82590   0.82590   0.94763
 Alpha virt. eigenvalues --    1.00305   1.00305   1.02174   1.13194   1.13194
 Alpha virt. eigenvalues --    1.18828   1.18829   1.21849   1.46955   1.49052
 Alpha virt. eigenvalues --    1.49052   1.61829   1.78660   1.78660   2.11192
 Alpha virt. eigenvalues --    2.14539   2.14539   2.41071   2.54831   2.58898
 Alpha virt. eigenvalues --    2.76963   2.76963   2.83881   3.05619   3.12555
 Alpha virt. eigenvalues --    3.12555   3.15703   3.20824   3.20824   3.55134
 Alpha virt. eigenvalues --    3.55134   3.72341   3.72341   3.87965   4.02073
 Alpha virt. eigenvalues --    4.27850   4.27850   4.33781   4.33781   4.35766
 Alpha virt. eigenvalues --    4.37959   4.37960   4.96578   5.35064   5.72880
 Alpha virt. eigenvalues --    5.72880   5.74973   7.15157   7.15157   7.28430
 Alpha virt. eigenvalues --    7.72602   7.72602  24.22739
  Beta  occ. eigenvalues --  -10.13310  -0.80794  -0.56237  -0.54818  -0.54818
  Beta virt. eigenvalues --    0.01500   0.06811   0.09061   0.09061   0.14768
  Beta virt. eigenvalues --    0.17295   0.23623   0.23623   0.25030   0.36188
  Beta virt. eigenvalues --    0.39964   0.39964   0.40375   0.40375   0.48951
  Beta virt. eigenvalues --    0.63019   0.63019   0.63330   0.66824   0.66824
  Beta virt. eigenvalues --    0.67751   0.71940   0.81942   0.82570   0.82571
  Beta virt. eigenvalues --    0.94727   1.00777   1.00777   1.02993   1.13329
  Beta virt. eigenvalues --    1.13329   1.18832   1.18832   1.22277   1.49575
  Beta virt. eigenvalues --    1.49575   1.49709   1.61923   1.83474   1.83474
  Beta virt. eigenvalues --    2.14347   2.15520   2.15520   2.41559   2.55034
  Beta virt. eigenvalues --    2.58913   2.78232   2.78232   2.89538   3.06019
  Beta virt. eigenvalues --    3.15502   3.15502   3.20016   3.24215   3.24215
  Beta virt. eigenvalues --    3.55216   3.55216   3.73249   3.73249   3.88202
  Beta virt. eigenvalues --    4.02471   4.27486   4.27486   4.34195   4.34196
  Beta virt. eigenvalues --    4.36471   4.38385   4.38385   4.96743   5.36023
  Beta virt. eigenvalues --    5.73467   5.73467   5.75032   7.21469   7.21471
  Beta virt. eigenvalues --    7.36443   7.74218   7.74219  24.24607
          Condensed to atoms (all electrons):
              1          2          3          4          5          6
     1  C    5.374557  -0.003915   0.401761   0.401762   0.401762  -0.006103
     2  H   -0.003915   0.587610   0.000027   0.000027   0.000027   0.422403
     3  H    0.401761   0.000027   0.448577  -0.021003  -0.021003   0.000012
     4  H    0.401762   0.000027  -0.021003   0.448573  -0.021003   0.000012
     5  H    0.401762   0.000027  -0.021003  -0.021003   0.448573   0.000012
     6  H   -0.006103   0.422403   0.000012   0.000012   0.000012   0.582555
 Mulliken atomic charges:
              1
     1  C   -0.569824
     2  H   -0.006178
     3  H    0.191630
     4  H    0.191632
     5  H    0.191632
     6  H    0.001108
 Sum of Mulliken atomic charges =   0.00000
 Mulliken charges with hydrogens summed into heavy atoms:
              1
     1  C    0.000000
 Sum of Mulliken charges with hydrogens summed into heavy atoms =   0.00000
          Atomic-Atomic Spin Densities.
              1          2          3          4          5          6
     1  C    1.058627  -0.000878   0.005106   0.005105   0.005105  -0.004631
     2  H   -0.000878  -0.005480  -0.000014  -0.000014  -0.000014   0.000527
     3  H    0.005106  -0.000014  -0.034610   0.002924   0.002924  -0.000018
     4  H    0.005105  -0.000014   0.002924  -0.034610   0.002924  -0.000018
     5  H    0.005105  -0.000014   0.002924   0.002924  -0.034610  -0.000018
     6  H   -0.004631   0.000527  -0.000018  -0.000018  -0.000018   0.012663
 Mulliken atomic spin densities:
              1
     1  C    1.068434
     2  H   -0.005874
     3  H   -0.023688
     4  H   -0.023689
     5  H   -0.023689
     6  H    0.008506
 Sum of Mulliken atomic spin densities =   1.00000
 Electronic spatial extent (au):  <R**2>=            117.9570
 Charge=              0.0000 electrons
 Dipole moment (field-independent basis, Debye):
    X=              0.0000    Y=              0.0000    Z=             -0.0664  Tot=              0.0664
 Quadrupole moment (field-independent basis, Debye-Ang):
   XX=             -9.4663   YY=             -9.4663   ZZ=            -11.0192
   XY=              0.0000   XZ=              0.0000   YZ=              0.0000
 Traceless Quadrupole moment (field-independent basis, Debye-Ang):
   XX=              0.5176   YY=              0.5176   ZZ=             -1.0352
   XY=              0.0000   XZ=              0.0000   YZ=              0.0000
 Octapole moment (field-independent basis, Debye-Ang**2):
  XXX=              0.9810  YYY=              0.0000  ZZZ=            -17.1160  XYY=             -0.9810
  XXY=              0.0000  XXZ=             -7.3955  XZZ=              0.0000  YZZ=              0.0000
  YYZ=             -7.3955  XYZ=              0.0000
 Hexadecapole moment (field-independent basis, Debye-Ang**3):
 XXXX=            -17.6364 YYYY=            -17.6364 ZZZZ=           -129.1156 XXXY=              0.0000
 XXXZ=             -0.0066 YYYX=              0.0000 YYYZ=              0.0000 ZZZX=              0.0000
 ZZZY=              0.0000 XXYY=             -5.8788 XXZZ=            -31.0691 YYZZ=            -31.0691
 XXYZ=              0.0000 YYXZ=              0.0066 ZZXY=              0.0000
 N-N= 1.318043345029D+01 E-N=-1.775226610190D+02  KE= 6.040663178037D+01
                          Isotropic Fermi Contact Couplings
        Atom                 a.u.       MegaHertz       Gauss      10(-4) cm-1
     1  C(13)              0.02874      32.31416      11.53049      10.77884
     2  H(1)              -0.00049      -2.19434      -0.78300      -0.73195
     3  H(1)              -0.01320     -59.01207     -21.05697     -19.68431
     4  H(1)              -0.01320     -59.01247     -21.05711     -19.68444
     5  H(1)              -0.01320     -59.01247     -21.05711     -19.68444
     6  H(1)               0.00332      14.84407       5.29673       4.95145
 --------------------------------------------------------
       Center         ----  Spin Dipole Couplings  ----
                      3XX-RR        3YY-RR        3ZZ-RR
 --------------------------------------------------------
     1   Atom       -0.592214     -0.592216      1.184431
     2   Atom       -0.008457     -0.008457      0.016913
     3   Atom        0.074240     -0.075277      0.001038
     4   Atom       -0.037898      0.036861      0.001038
     5   Atom       -0.037898      0.036861      0.001038
     6   Atom       -0.003212     -0.003212      0.006425
 --------------------------------------------------------
                        XY            XZ            YZ
 --------------------------------------------------------
     1   Atom        0.000000     -0.000001      0.000000
     2   Atom        0.000000      0.000000      0.000000
     3   Atom        0.000000     -0.000224      0.000000
     4   Atom        0.064743      0.000112      0.000194
     5   Atom       -0.064743      0.000112     -0.000194
     6   Atom        0.000000      0.000000      0.000000
 --------------------------------------------------------


 ---------------------------------------------------------------------------------
              Anisotropic Spin Dipole Couplings in Principal Axis System
 ---------------------------------------------------------------------------------

       Atom             a.u.   MegaHertz   Gauss  10(-4) cm-1        Axes

              Baa    -0.5922   -79.470   -28.357   -26.508  0.0000  1.0000  0.0000
     1 C(13)  Bbb    -0.5922   -79.470   -28.357   -26.508  1.0000  0.0000  0.0000
              Bcc     1.1844   158.939    56.713    53.016  0.0000  0.0000  1.0000
 
              Baa    -0.0085    -4.512    -1.610    -1.505  1.0000  0.0000  0.0000
     2 H(1)   Bbb    -0.0085    -4.512    -1.610    -1.505  0.0000  1.0000  0.0000
              Bcc     0.0169     9.024     3.220     3.010  0.0000  0.0000  1.0000
 
              Baa    -0.0753   -40.164   -14.332   -13.397  0.0000  1.0000  0.0000
     3 H(1)   Bbb     0.0010     0.553     0.197     0.185  0.0031  0.0000  1.0000
              Bcc     0.0742    39.611    14.134    13.213  1.0000  0.0000 -0.0031
 
              Baa    -0.0753   -40.164   -14.332   -13.397  0.8660 -0.5000  0.0000
     4 H(1)   Bbb     0.0010     0.553     0.197     0.185 -0.0015 -0.0027  1.0000
              Bcc     0.0742    39.611    14.134    13.213  0.5000  0.8660  0.0031
 
              Baa    -0.0753   -40.164   -14.332   -13.397  0.8660  0.5000  0.0000
     5 H(1)   Bbb     0.0010     0.553     0.197     0.185 -0.0015  0.0027  1.0000
              Bcc     0.0742    39.611    14.134    13.213 -0.5000  0.8660 -0.0031
 
              Baa    -0.0032    -1.714    -0.612    -0.572  1.0000  0.0000  0.0000
     6 H(1)   Bbb    -0.0032    -1.714    -0.612    -0.572  0.0000  1.0000  0.0000
              Bcc     0.0064     3.428     1.223     1.143  0.0000  0.0000  1.0000
 

 ---------------------------------------------------------------------------------

 No NMR shielding tensors so no spin-rotation constants.
 Leave Link  601 at Wed Nov  3 01:54:10 2010, MaxMem=  786432000 cpu:       3.9
 (Enter /share/apps/G09A02/g09/l9999.exe)
 1\1\GINC-COMPUTE-0-7\SP\ULC-BLYP\6-311+G(3df,2p)\C1H5(2)\WENXINZY\03-N
 ov-2010\0\\#p lc-blyp/6-311+g(3df,2p) nosymm scf=tight\\32 H2+CH3\\0,2
 \C\H,1,3.0212396\H,1,1.0792307,2,90.2028289\H,1,1.0792307,2,90.2028289
 ,3,120.,0\H,1,1.0792307,2,90.2028289,3,-120.,0\H,2,0.7435236,1,180.,3,
 0.,0\\Version=EM64L-G09RevA.02\HF=-40.8752185\S2=0.753558\S2-1=0.\S2A=
 0.750007\RMSD=8.427e-09\Dipole=-0.0000006,0.,-0.0261077\Quadrupole=0.3
 848385,0.384842,-0.7696804,0.,0.0000042,0.\PG=C03V [C3(H1H1C1),3SGV(H1
 )]\\@


 IF I AM NOT FOR MYSELF, WHO WILL BE?
 BUT IF I AM ONLY FOR MYSELF, WHAT AM I?
 THOUGH A SEEKER SINCE MY BIRTH,
 HERE IS ALL I'VE LEARNED ON EARTH,
 THIS IS THE GIST OF WHAT I KNOW:
 GIVE ADVICE AND BUY A FOE.

 PRESSED FOR RULES AND VERITIES,
 ALL I RECOLLECT ARE THESE:
 FEED A COLD TO STARVE A FEVER,
 ARGUE WITH NO TRUE-BELIEVER.
 THINK-TOO-LONG IS NEVER-ACT,
 SCRATCH A MYTH AND FIND A FACT.

 STITCH IN TIME SAVES TWENTY STITCHES,
 GIVE THE RICH TO PLEASE THEM, RICHES.
 GIVE TO LOVE YOU HEARTH AND HALL,
 BUT DO NOT GIVE ADVICE AT ALL.

                                  -- HILLEL
 Job cpu time:  0 days  0 hours  4 minutes 30.1 seconds.
 File lengths (MBytes):  RWF=      9 Int=      0 D2E=      0 Chk=      1 Scr=      1
 Normal termination of Gaussian 09 at Wed Nov  3 01:54:10 2010.
