 Entering Gaussian System, Link 0=/share/apps/G09A02/g09/g09
 Input=./.script12553/Job_H_CH4_29.com
 Output=./.script12553/Job_H_CH4_29.log
 Initial command:
 /share/apps/G09A02/g09/l1.exe /state/partition1/wenxinzy/scratch/Gau-15529.inp -scrdir=/state/partition1/wenxinzy/scratch/
 Default is to use a total of   8 processors:
                                8 via shared-memory
                                1 via Linda
 Entering Link 1 = /share/apps/G09A02/g09/l1.exe PID=     15530.
  
 Copyright (c) 1988,1990,1992,1993,1995,1998,2003,2009, Gaussian, Inc.
                  All Rights Reserved.
  
 This is part of the Gaussian(R) 09 program.  It is based on
 the Gaussian(R) 03 system (copyright 2003, Gaussian, Inc.),
 the Gaussian(R) 98 system (copyright 1998, Gaussian, Inc.),
 the Gaussian(R) 94 system (copyright 1995, Gaussian, Inc.),
 the Gaussian 92(TM) system (copyright 1992, Gaussian, Inc.),
 the Gaussian 90(TM) system (copyright 1990, Gaussian, Inc.),
 the Gaussian 88(TM) system (copyright 1988, Gaussian, Inc.),
 the Gaussian 86(TM) system (copyright 1986, Carnegie Mellon
 University), and the Gaussian 82(TM) system (copyright 1983,
 Carnegie Mellon University). Gaussian is a federally registered
 trademark of Gaussian, Inc.
  
 This software contains proprietary and confidential information,
 including trade secrets, belonging to Gaussian, Inc.
  
 This software is provided under written license and may be
 used, copied, transmitted, or stored only in accord with that
 written license.
  
 The following legend is applicable only to US Government
 contracts under FAR:
  
                    RESTRICTED RIGHTS LEGEND
  
 Use, reproduction and disclosure by the US Government is
 subject to restrictions as set forth in subparagraphs (a)
 and (c) of the Commercial Computer Software - Restricted
 Rights clause in FAR 52.227-19.
  
 Gaussian, Inc.
 340 Quinnipiac St., Bldg. 40, Wallingford CT 06492
  
  
 ---------------------------------------------------------------
 Warning -- This program may not be used in any manner that
 competes with the business of Gaussian, Inc. or will provide
 assistance to any competitor of Gaussian, Inc.  The licensee
 of this program is prohibited from giving any competitor of
 Gaussian, Inc. access to this program.  By using this program,
 the user acknowledges that Gaussian, Inc. is engaged in the
 business of creating and licensing software in the field of
 computational chemistry and represents and warrants to the
 licensee that it is not a competitor of Gaussian, Inc. and that
 it will not use this program in any manner prohibited above.
 ---------------------------------------------------------------
  

 Cite this work as:
 Gaussian 09, Revision A.02,
 M. J. Frisch, G. W. Trucks, H. B. Schlegel, G. E. Scuseria, 
 M. A. Robb, J. R. Cheeseman, G. Scalmani, V. Barone, B. Mennucci, 
 G. A. Petersson, H. Nakatsuji, M. Caricato, X. Li, H. P. Hratchian, 
 A. F. Izmaylov, J. Bloino, G. Zheng, J. L. Sonnenberg, M. Hada, 
 M. Ehara, K. Toyota, R. Fukuda, J. Hasegawa, M. Ishida, T. Nakajima, 
 Y. Honda, O. Kitao, H. Nakai, T. Vreven, J. A. Montgomery, Jr., 
 J. E. Peralta, F. Ogliaro, M. Bearpark, J. J. Heyd, E. Brothers, 
 K. N. Kudin, V. N. Staroverov, R. Kobayashi, J. Normand, 
 K. Raghavachari, A. Rendell, J. C. Burant, S. S. Iyengar, J. Tomasi, 
 M. Cossi, N. Rega, J. M. Millam, M. Klene, J. E. Knox, J. B. Cross, 
 V. Bakken, C. Adamo, J. Jaramillo, R. Gomperts, R. E. Stratmann, 
 O. Yazyev, A. J. Austin, R. Cammi, C. Pomelli, J. W. Ochterski, 
 R. L. Martin, K. Morokuma, V. G. Zakrzewski, G. A. Voth, 
 P. Salvador, J. J. Dannenberg, S. Dapprich, A. D. Daniels, 
 O. Farkas, J. B. Foresman, J. V. Ortiz, J. Cioslowski, 
 and D. J. Fox, Gaussian, Inc., Wallingford CT, 2009.
 
 ******************************************
 Gaussian 09:  EM64L-G09RevA.02 11-Jun-2009
                 3-Nov-2010 
 ******************************************
 %chk=/state/partition1/wenxinzy/scratch/H_CH4_29.chk
 %nproc=8
 Will use up to    8 processors via shared memory.
 %mem=6000mb
 -------------------------------------------
 #p lc-blyp/6-311+g(3df,2p) nosymm scf=tight
 -------------------------------------------
 1/38=1/1;
 2/12=2,15=1,17=6,18=5,40=1/2;
 3/5=4,6=6,7=216,11=2,16=1,25=1,30=1,74=1000402/1,2,3;
 4//1;
 5/5=2,32=2,38=5/2;
 6/7=2,8=2,9=2,10=2,28=1/1;
 99/5=1,9=1/99;
 Leave Link    1 at Wed Nov  3 01:24:24 2010, MaxMem=  786432000 cpu:       0.6
 (Enter /share/apps/G09A02/g09/l101.exe)
 --------
 30 H_CH4
 --------
 Symbolic Z-matrix:
 Charge =  0 Multiplicity = 2
 C
 H1                   C    R1
 H2                   C    R2       H1   A1
 H3                   C    R2       H1   A1       H2    120.     0
 H4                   C    R2       H1   A1       H2   -120.     0
 H5                   H1   R3       C     180.     H2    0.       0
       Variables:
  R1                    1.08939                  
  R2                    1.08934                  
  A1                  109.4698                   
  R3                    2.45853                  
 
 NAtoms=      6 NQM=      6 NQMF=      0 NMic=      0 NMicF=      0 NTot=      6.
                    Isotopes and Nuclear Properties:
 (Nuclear quadrupole moments (NQMom) in fm**2, nuclear magnetic moments (NMagM)
  in nuclear magnetons)

  Atom         1           2           3           4           5           6
 IAtWgt=          12           1           1           1           1           1
 AtmWgt=  12.0000000   1.0078250   1.0078250   1.0078250   1.0078250   1.0078250
 NucSpn=           0           1           1           1           1           1
 AtZEff=   0.0000000   0.0000000   0.0000000   0.0000000   0.0000000   0.0000000
 NQMom=    0.0000000   0.0000000   0.0000000   0.0000000   0.0000000   0.0000000
 NMagM=    0.0000000   2.7928460   2.7928460   2.7928460   2.7928460   2.7928460
 Leave Link  101 at Wed Nov  3 01:24:24 2010, MaxMem=  786432000 cpu:       1.0
 (Enter /share/apps/G09A02/g09/l202.exe)
                          Input orientation:                          
 ---------------------------------------------------------------------
 Center     Atomic      Atomic             Coordinates (Angstroms)
 Number     Number       Type             X           Y           Z
 ---------------------------------------------------------------------
      1          6           0        0.000000    0.000000    0.000000
      2          1           0        0.000000    0.000000    1.089395
      3          1           0        1.027049    0.000000   -0.363088
      4          1           0       -0.513524   -0.889450   -0.363088
      5          1           0       -0.513524    0.889450   -0.363088
      6          1           0        0.000000    0.000000    3.547921
 ---------------------------------------------------------------------
                    Distance matrix (angstroms):
                    1          2          3          4          5
     1  C    0.000000
     2  H    1.089395   0.000000
     3  H    1.089340   1.778914   0.000000
     4  H    1.089340   1.778914   1.778901   0.000000
     5  H    1.089340   1.778914   1.778901   1.778901   0.000000
     6  H    3.547921   2.458527   4.043615   4.043615   4.043615
                    6
     6  H    0.000000
 Symmetry turned off by external request.
 Stoichiometry    CH5(2)
 Framework group  C3V[C3(HHC),3SGV(H)]
 Deg. of freedom     4
 Full point group                 C3V     NOp   6
 Rotational constants (GHZ):    158.4632604     33.4132357     33.4132357
 Leave Link  202 at Wed Nov  3 01:24:24 2010, MaxMem=  786432000 cpu:       0.0
 (Enter /share/apps/G09A02/g09/l301.exe)
 Standard basis: 6-311+G(3df,2p) (5D, 7F)
 Ernie: Thresh=  0.10000D-02 Tol=  0.10000D-05 Strict=F.
 Integral buffers will be    131072 words long.
 Raffenetti 2 integral format.
 Two-electron integral symmetry is turned off.
    84 basis functions,   113 primitive gaussians,    90 cartesian basis functions
     6 alpha electrons        5 beta electrons
       nuclear repulsion energy        14.9461100273 Hartrees.
 IExCor=10402 DFT=T Ex=LC-B+HF Corr=LYP ExCW=0 ScaHFX=  1.000000
 ScaDFX=  1.000000  1.000000  1.000000  1.000000 ScalE2=  1.000000  1.000000
 IRadAn=      0 IRanWt=     -1 IRanGd=            0 ICorTp=0
  HFx wShort=  0.000000 wLong=  0.470000 cFull=  0.000000 cShort=  0.000000 cLong=  1.000000
  DFx wShort=  0.000000 wLong=  0.470000 cFull=  0.000000 cShort=  0.000000 cLong=  1.000000
 NAtoms=    6 NActive=    6 NUniq=    6 SFac= 7.50D-01 NAtFMM=   80 NAOKFM=F Big=F
 Leave Link  301 at Wed Nov  3 01:24:24 2010, MaxMem=  786432000 cpu:       0.7
 (Enter /share/apps/G09A02/g09/l302.exe)
 NPDir=0 NMtPBC=     1 NCelOv=     1 NCel=       1 NClECP=     1 NCelD=      1
         NCelK=      1 NCelE2=     1 NClLst=     1 CellRange=     0.0.
 One-electron integrals computed using PRISM.
 NBasis=    84 RedAO= T  NBF=    84
 NBsUse=    84 1.00D-06 NBFU=    84
 Precomputing XC quadrature grid using
 IXCGrd= 2 IRadAn=           0 IRanWt=          -1 IRanGd=           0 AccXCQ= 1.00D-10.
 NRdTot=     384 NPtTot=       48740 NUsed=       51519 NTot=       51551
 NSgBfM=    90    90    90    90    90 NAtAll=     6     6.
 Leave Link  302 at Wed Nov  3 01:24:25 2010, MaxMem=  786432000 cpu:       2.5
 (Enter /share/apps/G09A02/g09/l303.exe)
 DipDrv:  MaxL=1.
 Leave Link  303 at Wed Nov  3 01:24:25 2010, MaxMem=  786432000 cpu:       0.4
 (Enter /share/apps/G09A02/g09/l401.exe)
 Harris functional with IExCor=10402 diagonalized for initial guess.
 ExpMin= 4.38D-02 ExpMax= 4.56D+03 ExpMxC= 6.82D+02 IAcc=2 IRadAn=         0 AccDes= 0.00D+00
 HarFok:  IExCor=10402 AccDes= 0.00D+00 IRadAn=         0 IDoV= 1
 ScaDFX=  1.000000  1.000000  1.000000  1.000000
 FoFCou: FMM=F IPFlag=           0 FMFlag=      100000 FMFlg1=           0
         NFxFlg=           0 DoJE=T BraDBF=F KetDBF=T FulRan=T
         Omega=  0.000000  0.000000  1.000000  0.000000  0.000000 ICntrl=     500 IOpCl=  0
         NMat0=    1 NMatS0=    1 NMatT0=    0 NMatD0=    1 NMtDS0=    0 NMtDT0=    0
         I1Cent=           4 NGrid=           0.
 Symmetry not used in FoFCou.
 Harris En= -38.5636599883090    
 Initial guess <Sx>= 0.0000 <Sy>= 0.0000 <Sz>= 0.5000 <S**2>= 0.7500 S= 0.5000
 Leave Link  401 at Wed Nov  3 01:24:25 2010, MaxMem=  786432000 cpu:       3.7
 (Enter /share/apps/G09A02/g09/l502.exe)
 UHF open shell SCF:
 Requested convergence on RMS density matrix=1.00D-08 within 128 cycles.
 Requested convergence on MAX density matrix=1.00D-06.
 Requested convergence on             energy=1.00D-06.
 No special actions if energy rises.
 Using DIIS extrapolation, IDIIS=  1040.
 Two-electron integral symmetry not used.
        51452 words used for storage of precomputed grid.
 IEnd=       95170 IEndB=       95170 NGot=   786432000 MDV=   786361661
 LenX=   786361661 LenY=   786353120
 Fock matrices will be formed incrementally for  20 cycles.

 Cycle   1  Pass 1  IDiag  1:
 FoFJK:  IHMeth= 1 ICntrl=     0 DoSepK=T KAlg= 1 I1Cent= 0 FoldK=F
 FoFCou: FMM=F IPFlag=           0 FMFlag=      100000 FMFlg1=           0
         NFxFlg=           0 DoJE=T BraDBF=F KetDBF=F FulRan=T
         Omega=  0.000000  0.000000  1.000000  0.000000  0.000000 ICntrl=     500 IOpCl=  0
         NMat0=    1 NMatS0=    1 NMatT0=    0 NMatD0=    1 NMtDS0=    0 NMtDT0=    0
         I1Cent=           0 NGrid=           0.
 Symmetry not used in FoFCou.
 E= -40.7981010887437    
 DIIS: error= 2.97D-02 at cycle   1 NSaved=   1.
 NSaved= 1 IEnMin= 1 EnMin= -40.7981010887437     IErMin= 1 ErrMin= 2.97D-02
 ErrMax= 2.97D-02 EMaxC= 1.00D-01 BMatC= 2.58D-01 BMatP= 2.58D-01
 IDIUse=3 WtCom= 7.03D-01 WtEn= 2.97D-01
 Coeff-Com:  0.100D+01
 Coeff-En:   0.100D+01
 Coeff:      0.100D+01
 Gap=     0.512 Goal=   None    Shift=    0.000
 Gap=     0.349 Goal=   None    Shift=    0.000
 GapD=    0.349 DampG=1.000 DampE=0.500 DampFc=0.5000 IDamp=-1.
 Damping current iteration by 5.00D-01
 RMSDP=4.88D-03 MaxDP=1.86D-01              OVMax= 1.57D-01

 Cycle   2  Pass 1  IDiag  1:
 RMSU=  1.88D-03    CP:  8.97D-01
 FoFJK:  IHMeth= 1 ICntrl=     0 DoSepK=T KAlg= 1 I1Cent= 0 FoldK=F
 E= -40.8405392929670     Delta-E=       -0.042438204223 Rises=F Damp=T
 DIIS: error= 1.05D-02 at cycle   2 NSaved=   2.
 NSaved= 2 IEnMin= 2 EnMin= -40.8405392929670     IErMin= 2 ErrMin= 1.05D-02
 ErrMax= 1.05D-02 EMaxC= 1.00D-01 BMatC= 2.19D-02 BMatP= 2.58D-01
 IDIUse=3 WtCom= 8.95D-01 WtEn= 1.05D-01
 Coeff-Com: -0.221D+00 0.122D+01
 Coeff-En:   0.000D+00 0.100D+01
 Coeff:     -0.197D+00 0.120D+01
 Gap=     0.558 Goal=   None    Shift=    0.000
 Gap=     0.470 Goal=   None    Shift=    0.000
 RMSDP=2.67D-03 MaxDP=1.16D-01 DE=-4.24D-02 OVMax= 4.70D-02

 Cycle   3  Pass 1  IDiag  1:
 RMSU=  9.15D-04    CP:  8.05D-01  2.02D+00
 FoFJK:  IHMeth= 1 ICntrl=     0 DoSepK=T KAlg= 1 I1Cent= 0 FoldK=F
 E= -40.8826254132761     Delta-E=       -0.042086120309 Rises=F Damp=F
 DIIS: error= 2.98D-03 at cycle   3 NSaved=   3.
 NSaved= 3 IEnMin= 3 EnMin= -40.8826254132761     IErMin= 3 ErrMin= 2.98D-03
 ErrMax= 2.98D-03 EMaxC= 1.00D-01 BMatC= 9.64D-04 BMatP= 2.19D-02
 IDIUse=3 WtCom= 9.70D-01 WtEn= 2.98D-02
 Coeff-Com:  0.383D-01-0.282D+00 0.124D+01
 Coeff-En:   0.000D+00 0.000D+00 0.100D+01
 Coeff:      0.371D-01-0.273D+00 0.124D+01
 Gap=     0.514 Goal=   None    Shift=    0.000
 Gap=     0.502 Goal=   None    Shift=    0.000
 RMSDP=6.45D-04 MaxDP=2.98D-02 DE=-4.21D-02 OVMax= 3.67D-02

 Cycle   4  Pass 1  IDiag  1:
 RMSU=  3.03D-04    CP:  7.87D-01  2.21D+00  1.30D+00
 FoFJK:  IHMeth= 1 ICntrl=     0 DoSepK=T KAlg= 1 I1Cent= 0 FoldK=F
 E= -40.8835781277823     Delta-E=       -0.000952714506 Rises=F Damp=F
 DIIS: error= 4.01D-04 at cycle   4 NSaved=   4.
 NSaved= 4 IEnMin= 4 EnMin= -40.8835781277823     IErMin= 4 ErrMin= 4.01D-04
 ErrMax= 4.01D-04 EMaxC= 1.00D-01 BMatC= 2.49D-05 BMatP= 9.64D-04
 IDIUse=3 WtCom= 9.96D-01 WtEn= 4.01D-03
 Coeff-Com: -0.440D-02-0.192D-02-0.113D+00 0.112D+01
 Coeff-En:   0.000D+00 0.000D+00 0.000D+00 0.100D+01
 Coeff:     -0.438D-02-0.191D-02-0.112D+00 0.112D+01
 Gap=     0.512 Goal=   None    Shift=    0.000
 Gap=     0.502 Goal=   None    Shift=    0.000
 RMSDP=9.43D-05 MaxDP=4.98D-03 DE=-9.53D-04 OVMax= 5.95D-03

 Cycle   5  Pass 1  IDiag  1:
 RMSU=  3.31D-05    CP:  7.85D-01  2.23D+00  1.33D+00  1.19D+00
 FoFJK:  IHMeth= 1 ICntrl=     0 DoSepK=T KAlg= 1 I1Cent= 0 FoldK=F
 E= -40.8836005812047     Delta-E=       -0.000022453422 Rises=F Damp=F
 DIIS: error= 8.24D-05 at cycle   5 NSaved=   5.
 NSaved= 5 IEnMin= 5 EnMin= -40.8836005812047     IErMin= 5 ErrMin= 8.24D-05
 ErrMax= 8.24D-05 EMaxC= 1.00D-01 BMatC= 3.43D-07 BMatP= 2.49D-05
 IDIUse=1 WtCom= 1.00D+00 WtEn= 0.00D+00
 Coeff-Com:  0.694D-03 0.337D-02 0.145D-01-0.273D+00 0.125D+01
 Coeff:      0.694D-03 0.337D-02 0.145D-01-0.273D+00 0.125D+01
 Gap=     0.512 Goal=   None    Shift=    0.000
 Gap=     0.502 Goal=   None    Shift=    0.000
 RMSDP=1.64D-05 MaxDP=6.44D-04 DE=-2.25D-05 OVMax= 6.22D-04

 Cycle   6  Pass 1  IDiag  1:
 RMSU=  2.06D-06    CP:  7.85D-01  2.23D+00  1.33D+00  1.20D+00  1.44D+00
 FoFJK:  IHMeth= 1 ICntrl=     0 DoSepK=T KAlg= 1 I1Cent= 0 FoldK=F
 E= -40.8836009475695     Delta-E=       -0.000000366365 Rises=F Damp=F
 DIIS: error= 1.88D-05 at cycle   6 NSaved=   6.
 NSaved= 6 IEnMin= 6 EnMin= -40.8836009475695     IErMin= 6 ErrMin= 1.88D-05
 ErrMax= 1.88D-05 EMaxC= 1.00D-01 BMatC= 1.92D-08 BMatP= 3.43D-07
 IDIUse=1 WtCom= 1.00D+00 WtEn= 0.00D+00
 Coeff-Com: -0.123D-03-0.126D-02-0.325D-02 0.824D-01-0.499D+00 0.142D+01
 Coeff:     -0.123D-03-0.126D-02-0.325D-02 0.824D-01-0.499D+00 0.142D+01
 Gap=     0.512 Goal=   None    Shift=    0.000
 Gap=     0.502 Goal=   None    Shift=    0.000
 RMSDP=3.32D-06 MaxDP=1.18D-04 DE=-3.66D-07 OVMax= 1.65D-04

 Cycle   7  Pass 1  IDiag  1:
 RMSU=  5.80D-07    CP:  7.85D-01  2.23D+00  1.33D+00  1.20D+00  1.51D+00
                    CP:  1.56D+00
 FoFJK:  IHMeth= 1 ICntrl=     0 DoSepK=T KAlg= 1 I1Cent= 0 FoldK=F
 E= -40.8836009689615     Delta-E=       -0.000000021392 Rises=F Damp=F
 DIIS: error= 4.62D-06 at cycle   7 NSaved=   7.
 NSaved= 7 IEnMin= 7 EnMin= -40.8836009689615     IErMin= 7 ErrMin= 4.62D-06
 ErrMax= 4.62D-06 EMaxC= 1.00D-01 BMatC= 1.40D-09 BMatP= 1.92D-08
 IDIUse=1 WtCom= 1.00D+00 WtEn= 0.00D+00
 Coeff-Com: -0.154D-04 0.243D-03 0.320D-03-0.127D-01 0.967D-01-0.439D+00
 Coeff-Com:  0.135D+01
 Coeff:     -0.154D-04 0.243D-03 0.320D-03-0.127D-01 0.967D-01-0.439D+00
 Coeff:      0.135D+01
 Gap=     0.512 Goal=   None    Shift=    0.000
 Gap=     0.502 Goal=   None    Shift=    0.000
 RMSDP=4.39D-07 MaxDP=9.59D-06 DE=-2.14D-08 OVMax= 2.96D-05

 Cycle   8  Pass 1  IDiag  1:
 RMSU=  1.56D-07    CP:  7.85D-01  2.23D+00  1.33D+00  1.20D+00  1.52D+00
                    CP:  1.68D+00  1.43D+00
 FoFJK:  IHMeth= 1 ICntrl=     0 DoSepK=T KAlg= 1 I1Cent= 0 FoldK=F
 E= -40.8836009702114     Delta-E=       -0.000000001250 Rises=F Damp=F
 DIIS: error= 1.56D-06 at cycle   8 NSaved=   8.
 NSaved= 8 IEnMin= 8 EnMin= -40.8836009702114     IErMin= 8 ErrMin= 1.56D-06
 ErrMax= 1.56D-06 EMaxC= 1.00D-01 BMatC= 1.42D-10 BMatP= 1.40D-09
 IDIUse=1 WtCom= 1.00D+00 WtEn= 0.00D+00
 Coeff-Com:  0.198D-04 0.881D-04 0.354D-03-0.698D-02 0.371D-01-0.656D-01
 Coeff-Com: -0.268D+00 0.130D+01
 Coeff:      0.198D-04 0.881D-04 0.354D-03-0.698D-02 0.371D-01-0.656D-01
 Coeff:     -0.268D+00 0.130D+01
 Gap=     0.512 Goal=   None    Shift=    0.000
 Gap=     0.502 Goal=   None    Shift=    0.000
 RMSDP=1.55D-07 MaxDP=3.39D-06 DE=-1.25D-09 OVMax= 9.41D-06

 Cycle   9  Pass 1  IDiag  1:
 RMSU=  2.71D-08    CP:  7.85D-01  2.23D+00  1.33D+00  1.20D+00  1.51D+00
                    CP:  1.70D+00  1.55D+00  1.53D+00
 FoFJK:  IHMeth= 1 ICntrl=     0 DoSepK=T KAlg= 1 I1Cent= 0 FoldK=F
 E= -40.8836009703317     Delta-E=       -0.000000000120 Rises=F Damp=F
 DIIS: error= 3.98D-07 at cycle   9 NSaved=   9.
 NSaved= 9 IEnMin= 9 EnMin= -40.8836009703317     IErMin= 9 ErrMin= 3.98D-07
 ErrMax= 3.98D-07 EMaxC= 1.00D-01 BMatC= 8.43D-12 BMatP= 1.42D-10
 IDIUse=1 WtCom= 1.00D+00 WtEn= 0.00D+00
 Coeff-Com: -0.194D-06-0.332D-04-0.889D-04 0.215D-02-0.136D-01 0.469D-01
 Coeff-Com: -0.779D-01-0.161D+00 0.120D+01
 Coeff:     -0.194D-06-0.332D-04-0.889D-04 0.215D-02-0.136D-01 0.469D-01
 Coeff:     -0.779D-01-0.161D+00 0.120D+01
 Gap=     0.512 Goal=   None    Shift=    0.000
 Gap=     0.502 Goal=   None    Shift=    0.000
 RMSDP=3.23D-08 MaxDP=9.05D-07 DE=-1.20D-10 OVMax= 1.92D-06

 Cycle  10  Pass 1  IDiag  1:
 RMSU=  9.30D-09    CP:  7.85D-01  2.23D+00  1.33D+00  1.20D+00  1.51D+00
                    CP:  1.70D+00  1.56D+00  1.64D+00  1.46D+00
 FoFJK:  IHMeth= 1 ICntrl=     0 DoSepK=T KAlg= 1 I1Cent= 0 FoldK=F
 E= -40.8836009703392     Delta-E=       -0.000000000008 Rises=F Damp=F
 DIIS: error= 7.80D-08 at cycle  10 NSaved=  10.
 NSaved=10 IEnMin=10 EnMin= -40.8836009703392     IErMin=10 ErrMin= 7.80D-08
 ErrMax= 7.80D-08 EMaxC= 1.00D-01 BMatC= 5.72D-13 BMatP= 8.43D-12
 IDIUse=1 WtCom= 1.00D+00 WtEn= 0.00D+00
 Coeff-Com: -0.113D-05 0.116D-04 0.197D-04-0.638D-03 0.435D-02-0.183D-01
 Coeff-Com:  0.505D-01 0.233D-02-0.540D+00 0.150D+01
 Coeff:     -0.113D-05 0.116D-04 0.197D-04-0.638D-03 0.435D-02-0.183D-01
 Coeff:      0.505D-01 0.233D-02-0.540D+00 0.150D+01
 Gap=     0.512 Goal=   None    Shift=    0.000
 Gap=     0.502 Goal=   None    Shift=    0.000
 RMSDP=9.86D-09 MaxDP=1.84D-07 DE=-7.56D-12 OVMax= 5.12D-07

 SCF Done:  E(ULC-B+HF-LYP) =  -40.8836009703     A.U. after   10 cycles
             Convg  =    0.9863D-08             -V/T =  2.0051
 <Sx>= 0.0000 <Sy>= 0.0000 <Sz>= 0.5000 <S**2>= 0.7501 S= 0.5001
 <L.S>= 0.000000000000E+00
 KE= 4.067747694768D+01 PE=-1.240445247408D+02 EE= 2.753733679539D+01
 Annihilation of the first spin contaminant:
 S**2 before annihilation     0.7501,   after     0.7500
 Leave Link  502 at Wed Nov  3 01:24:55 2010, MaxMem=  786432000 cpu:     232.5
 (Enter /share/apps/G09A02/g09/l601.exe)
 Copying SCF densities to generalized density rwf, IOpCl= 1 IROHF=0.

 **********************************************************************

            Population analysis using the SCF density.

 **********************************************************************

 Alpha  occ. eigenvalues --  -10.11340  -0.85978  -0.52926  -0.52535  -0.52535
 Alpha  occ. eigenvalues --   -0.44822
 Alpha virt. eigenvalues --    0.06424   0.09607   0.09607   0.10957   0.22651
 Alpha virt. eigenvalues --    0.22651   0.24092   0.27021   0.35673   0.36756
 Alpha virt. eigenvalues --    0.36756   0.41862   0.41862   0.44210   0.64634
 Alpha virt. eigenvalues --    0.64634   0.66597   0.69218   0.69218   0.71310
 Alpha virt. eigenvalues --    0.74383   0.80249   0.80263   0.80263   0.98409
 Alpha virt. eigenvalues --    0.99173   0.99317   0.99317   1.10261   1.10261
 Alpha virt. eigenvalues --    1.25263   1.25263   1.29227   1.40952   1.40952
 Alpha virt. eigenvalues --    1.42237   1.68808   2.06605   2.06605   2.07610
 Alpha virt. eigenvalues --    2.07808   2.07808   2.35545   2.52666   2.78760
 Alpha virt. eigenvalues --    2.78761   2.80813   3.08971   3.08971   3.09004
 Alpha virt. eigenvalues --    3.43891   3.43891   3.44731   3.63937   3.65146
 Alpha virt. eigenvalues --    3.65146   3.80595   3.80595   3.95510   4.07961
 Alpha virt. eigenvalues --    4.31080   4.31080   4.33135   4.35639   4.35639
 Alpha virt. eigenvalues --    4.58730   4.58744   4.58744   5.01786   5.89346
 Alpha virt. eigenvalues --    5.89357   5.89357   7.30284   7.30284   7.91459
 Alpha virt. eigenvalues --    7.91459   7.92258  24.29266
  Beta  occ. eigenvalues --  -10.11320  -0.85917  -0.52530  -0.52521  -0.52521
  Beta virt. eigenvalues --   -0.02336   0.06753   0.09500   0.09501   0.11422
  Beta virt. eigenvalues --    0.22641   0.22641   0.24476   0.27100   0.36743
  Beta virt. eigenvalues --    0.36743   0.38964   0.41837   0.41837   0.47458
  Beta virt. eigenvalues --    0.64703   0.64703   0.67223   0.71473   0.73336
  Beta virt. eigenvalues --    0.73336   0.75341   0.80259   0.80259   0.80326
  Beta virt. eigenvalues --    0.99173   0.99324   0.99324   0.99908   1.10259
  Beta virt. eigenvalues --    1.10259   1.25259   1.25259   1.29521   1.40959
  Beta virt. eigenvalues --    1.40959   1.42092   1.68779   2.06628   2.06628
  Beta virt. eigenvalues --    2.07838   2.07838   2.07891   2.52639   2.56266
  Beta virt. eigenvalues --    2.78780   2.78780   2.80866   3.09012   3.09020
  Beta virt. eigenvalues --    3.09020   3.43917   3.43917   3.44824   3.64543
  Beta virt. eigenvalues --    3.65218   3.65218   3.96071   3.96071   4.07300
  Beta virt. eigenvalues --    4.10322   4.31088   4.31088   4.33544   4.35637
  Beta virt. eigenvalues --    4.35637   4.58737   4.58756   4.58756   5.01852
  Beta virt. eigenvalues --    5.89370   5.89370   5.89381   7.30343   7.30343
  Beta virt. eigenvalues --    7.91495   7.91496   7.92339  24.29293
          Condensed to atoms (all electrons):
              1          2          3          4          5          6
     1  C    5.073427   0.394434   0.401917   0.401917   0.401917   0.002742
     2  H    0.394434   0.484854  -0.017169  -0.017169  -0.017169  -0.002756
     3  H    0.401917  -0.017169   0.483481  -0.017228  -0.017228  -0.000058
     4  H    0.401917  -0.017169  -0.017228   0.483480  -0.017228  -0.000058
     5  H    0.401917  -0.017169  -0.017228  -0.017228   0.483480  -0.000058
     6  H    0.002742  -0.002756  -0.000058  -0.000058  -0.000058   0.997671
 Mulliken atomic charges:
              1
     1  C   -0.676354
     2  H    0.174975
     3  H    0.166286
     4  H    0.166287
     5  H    0.166287
     6  H    0.002519
 Sum of Mulliken atomic charges =   0.00000
 Mulliken charges with hydrogens summed into heavy atoms:
              1
     1  C    0.000000
 Sum of Mulliken charges with hydrogens summed into heavy atoms =   0.00000
          Atomic-Atomic Spin Densities.
              1          2          3          4          5          6
     1  C    0.019087   0.001275  -0.000331  -0.000331  -0.000331   0.001580
     2  H    0.001275  -0.013477   0.000840   0.000840   0.000840  -0.004766
     3  H   -0.000331   0.000840  -0.000233  -0.000185  -0.000185  -0.000021
     4  H   -0.000331   0.000840  -0.000185  -0.000234  -0.000185  -0.000021
     5  H   -0.000331   0.000840  -0.000185  -0.000185  -0.000234  -0.000021
     6  H    0.001580  -0.004766  -0.000021  -0.000021  -0.000021   0.997097
 Mulliken atomic spin densities:
              1
     1  C    0.020948
     2  H   -0.014449
     3  H   -0.000115
     4  H   -0.000116
     5  H   -0.000116
     6  H    0.993849
 Sum of Mulliken atomic spin densities =   1.00000
 Electronic spatial extent (au):  <R**2>=             84.0548
 Charge=              0.0000 electrons
 Dipole moment (field-independent basis, Debye):
    X=              0.0000    Y=              0.0000    Z=              0.0014  Tot=              0.0014
 Quadrupole moment (field-independent basis, Debye-Ang):
   XX=             -9.9466   YY=             -9.9466   ZZ=             -9.9022
   XY=              0.0000   XZ=              0.0000   YZ=              0.0000
 Traceless Quadrupole moment (field-independent basis, Debye-Ang):
   XX=             -0.0148   YY=             -0.0148   ZZ=              0.0296
   XY=              0.0000   XZ=              0.0000   YZ=              0.0000
 Octapole moment (field-independent basis, Debye-Ang**2):
  XXX=              0.6629  YYY=              0.0000  ZZZ=            -13.9708  XYY=             -0.6629
  XXY=              0.0000  XXZ=             -5.5392  XZZ=              0.0000  YZZ=              0.0000
  YYZ=             -5.5392  XYZ=              0.0000
 Hexadecapole moment (field-independent basis, Debye-Ang**3):
 XXXX=            -18.4898 YYYY=            -18.4898 ZZZZ=           -124.3623 XXXY=              0.0000
 XXXZ=             -0.4220 YYYX=              0.0000 YYYZ=              0.0000 ZZZX=              0.0000
 ZZZY=              0.0000 XXYY=             -6.1633 XXZZ=            -24.4321 YYZZ=            -24.4321
 XXYZ=              0.0000 YYXZ=              0.4220 ZZXY=              0.0000
 N-N= 1.494611002735D+01 E-N=-1.847989227765D+02  KE= 6.076438532407D+01
                          Isotropic Fermi Contact Couplings
        Atom                 a.u.       MegaHertz       Gauss      10(-4) cm-1
     1  C(13)              0.00450       5.06433       1.80708       1.68928
     2  H(1)               0.00031       1.40641       0.50184       0.46913
     3  H(1)              -0.00005      -0.22189      -0.07917      -0.07401
     4  H(1)              -0.00005      -0.22185      -0.07916      -0.07400
     5  H(1)              -0.00005      -0.22185      -0.07916      -0.07400
     6  H(1)               0.28625    1279.48272     456.55124     426.78950
 --------------------------------------------------------
       Center         ----  Spin Dipole Couplings  ----
                      3XX-RR        3YY-RR        3ZZ-RR
 --------------------------------------------------------
     1   Atom       -0.010560     -0.010560      0.021121
     2   Atom       -0.011679     -0.011679      0.023358
     3   Atom       -0.001025     -0.002917      0.003942
     4   Atom       -0.002444     -0.001498      0.003942
     5   Atom       -0.002444     -0.001498      0.003942
     6   Atom        0.000207      0.000207     -0.000414
 --------------------------------------------------------
                        XY            XZ            YZ
 --------------------------------------------------------
     1   Atom        0.000000      0.000000      0.000000
     2   Atom        0.000000      0.000000      0.000000
     3   Atom        0.000000     -0.002009      0.000000
     4   Atom        0.000820      0.001005      0.001740
     5   Atom       -0.000820      0.001005     -0.001740
     6   Atom        0.000000      0.000000      0.000000
 --------------------------------------------------------


 ---------------------------------------------------------------------------------
              Anisotropic Spin Dipole Couplings in Principal Axis System
 ---------------------------------------------------------------------------------

       Atom             a.u.   MegaHertz   Gauss  10(-4) cm-1        Axes

              Baa    -0.0106    -1.417    -0.506    -0.473  0.0000  1.0000  0.0000
     1 C(13)  Bbb    -0.0106    -1.417    -0.506    -0.473  1.0000  0.0000  0.0000
              Bcc     0.0211     2.834     1.011     0.945  0.0000  0.0000  1.0000
 
              Baa    -0.0117    -6.231    -2.223    -2.079  1.0000  0.0000  0.0000
     2 H(1)   Bbb    -0.0117    -6.231    -2.223    -2.079  0.0000  1.0000  0.0000
              Bcc     0.0234    12.463     4.447     4.157  0.0000  0.0000  1.0000
 
              Baa    -0.0029    -1.557    -0.555    -0.519  0.0000  1.0000  0.0000
     3 H(1)   Bbb    -0.0017    -0.926    -0.330    -0.309  0.9427  0.0000  0.3336
              Bcc     0.0047     2.483     0.886     0.828 -0.3336  0.0000  0.9427
 
              Baa    -0.0029    -1.557    -0.555    -0.519  0.8660 -0.5000  0.0000
     4 H(1)   Bbb    -0.0017    -0.926    -0.330    -0.309  0.4714  0.8164 -0.3336
              Bcc     0.0047     2.483     0.886     0.828  0.1668  0.2889  0.9427
 
              Baa    -0.0029    -1.557    -0.555    -0.519  0.8660  0.5000  0.0000
     5 H(1)   Bbb    -0.0017    -0.926    -0.330    -0.309 -0.4714  0.8164  0.3336
              Bcc     0.0047     2.483     0.886     0.828  0.1668 -0.2889  0.9427
 
              Baa    -0.0004    -0.221    -0.079    -0.074  0.0000  0.0000  1.0000
     6 H(1)   Bbb     0.0002     0.110     0.039     0.037  1.0000  0.0000  0.0000
              Bcc     0.0002     0.110     0.039     0.037  0.0000  1.0000  0.0000
 

 ---------------------------------------------------------------------------------

 No NMR shielding tensors so no spin-rotation constants.
 Leave Link  601 at Wed Nov  3 01:24:55 2010, MaxMem=  786432000 cpu:       4.4
 (Enter /share/apps/G09A02/g09/l9999.exe)
 1\1\GINC-COMPUTE-0-7\SP\ULC-BLYP\6-311+G(3df,2p)\C1H5(2)\WENXINZY\03-N
 ov-2010\0\\#p lc-blyp/6-311+g(3df,2p) nosymm scf=tight\\30 H_CH4\\0,2\
 C\H,1,1.0893945\H,1,1.0893403,2,109.4698041\H,1,1.0893403,2,109.469804
 1,3,120.,0\H,1,1.0893403,2,109.4698041,3,-120.,0\H,2,2.4585269,1,180.,
 3,0.,0\\Version=EM64L-G09RevA.02\HF=-40.883601\S2=0.7501\S2-1=0.\S2A=0
 .75\RMSD=9.863e-09\Dipole=0.0000002,0.,0.000569\Quadrupole=-0.0109956,
 -0.0109927,0.0219883,0.,-0.0000006,0.\PG=C03V [C3(H1H1C1),3SGV(H1)]\\@


 There are more things in heaven and earth, Horatio,
 than are dreamt of in your philosophy.
                   -- Hamlet, Act I, Scene 5
 The chemist is a guest at the physicist's table and
 frequently dines well.
                   -- Richard Bersohn
 Job cpu time:  0 days  0 hours  4 minutes  7.2 seconds.
 File lengths (MBytes):  RWF=      9 Int=      0 D2E=      0 Chk=      1 Scr=      1
 Normal termination of Gaussian 09 at Wed Nov  3 01:24:55 2010.
