 Entering Gaussian System, Link 0=/share/apps/G09A02/g09/g09
 Input=./.script12553/Job_H_CH4_21.com
 Output=./.script12553/Job_H_CH4_21.log
 Initial command:
 /share/apps/G09A02/g09/l1.exe /state/partition1/wenxinzy/scratch/Gau-14712.inp -scrdir=/state/partition1/wenxinzy/scratch/
 Default is to use a total of   8 processors:
                                8 via shared-memory
                                1 via Linda
 Entering Link 1 = /share/apps/G09A02/g09/l1.exe PID=     14713.
  
 Copyright (c) 1988,1990,1992,1993,1995,1998,2003,2009, Gaussian, Inc.
                  All Rights Reserved.
  
 This is part of the Gaussian(R) 09 program.  It is based on
 the Gaussian(R) 03 system (copyright 2003, Gaussian, Inc.),
 the Gaussian(R) 98 system (copyright 1998, Gaussian, Inc.),
 the Gaussian(R) 94 system (copyright 1995, Gaussian, Inc.),
 the Gaussian 92(TM) system (copyright 1992, Gaussian, Inc.),
 the Gaussian 90(TM) system (copyright 1990, Gaussian, Inc.),
 the Gaussian 88(TM) system (copyright 1988, Gaussian, Inc.),
 the Gaussian 86(TM) system (copyright 1986, Carnegie Mellon
 University), and the Gaussian 82(TM) system (copyright 1983,
 Carnegie Mellon University). Gaussian is a federally registered
 trademark of Gaussian, Inc.
  
 This software contains proprietary and confidential information,
 including trade secrets, belonging to Gaussian, Inc.
  
 This software is provided under written license and may be
 used, copied, transmitted, or stored only in accord with that
 written license.
  
 The following legend is applicable only to US Government
 contracts under FAR:
  
                    RESTRICTED RIGHTS LEGEND
  
 Use, reproduction and disclosure by the US Government is
 subject to restrictions as set forth in subparagraphs (a)
 and (c) of the Commercial Computer Software - Restricted
 Rights clause in FAR 52.227-19.
  
 Gaussian, Inc.
 340 Quinnipiac St., Bldg. 40, Wallingford CT 06492
  
  
 ---------------------------------------------------------------
 Warning -- This program may not be used in any manner that
 competes with the business of Gaussian, Inc. or will provide
 assistance to any competitor of Gaussian, Inc.  The licensee
 of this program is prohibited from giving any competitor of
 Gaussian, Inc. access to this program.  By using this program,
 the user acknowledges that Gaussian, Inc. is engaged in the
 business of creating and licensing software in the field of
 computational chemistry and represents and warrants to the
 licensee that it is not a competitor of Gaussian, Inc. and that
 it will not use this program in any manner prohibited above.
 ---------------------------------------------------------------
  

 Cite this work as:
 Gaussian 09, Revision A.02,
 M. J. Frisch, G. W. Trucks, H. B. Schlegel, G. E. Scuseria, 
 M. A. Robb, J. R. Cheeseman, G. Scalmani, V. Barone, B. Mennucci, 
 G. A. Petersson, H. Nakatsuji, M. Caricato, X. Li, H. P. Hratchian, 
 A. F. Izmaylov, J. Bloino, G. Zheng, J. L. Sonnenberg, M. Hada, 
 M. Ehara, K. Toyota, R. Fukuda, J. Hasegawa, M. Ishida, T. Nakajima, 
 Y. Honda, O. Kitao, H. Nakai, T. Vreven, J. A. Montgomery, Jr., 
 J. E. Peralta, F. Ogliaro, M. Bearpark, J. J. Heyd, E. Brothers, 
 K. N. Kudin, V. N. Staroverov, R. Kobayashi, J. Normand, 
 K. Raghavachari, A. Rendell, J. C. Burant, S. S. Iyengar, J. Tomasi, 
 M. Cossi, N. Rega, J. M. Millam, M. Klene, J. E. Knox, J. B. Cross, 
 V. Bakken, C. Adamo, J. Jaramillo, R. Gomperts, R. E. Stratmann, 
 O. Yazyev, A. J. Austin, R. Cammi, C. Pomelli, J. W. Ochterski, 
 R. L. Martin, K. Morokuma, V. G. Zakrzewski, G. A. Voth, 
 P. Salvador, J. J. Dannenberg, S. Dapprich, A. D. Daniels, 
 O. Farkas, J. B. Foresman, J. V. Ortiz, J. Cioslowski, 
 and D. J. Fox, Gaussian, Inc., Wallingford CT, 2009.
 
 ******************************************
 Gaussian 09:  EM64L-G09RevA.02 11-Jun-2009
                 3-Nov-2010 
 ******************************************
 %chk=/state/partition1/wenxinzy/scratch/H_CH4_21.chk
 %nproc=8
 Will use up to    8 processors via shared memory.
 %mem=6000mb
 -------------------------------------------
 #p lc-blyp/6-311+g(3df,2p) nosymm scf=tight
 -------------------------------------------
 1/38=1/1;
 2/12=2,15=1,17=6,18=5,40=1/2;
 3/5=4,6=6,7=216,11=2,16=1,25=1,30=1,74=1000402/1,2,3;
 4//1;
 5/5=2,32=2,38=5/2;
 6/7=2,8=2,9=2,10=2,28=1/1;
 99/5=1,9=1/99;
 Leave Link    1 at Wed Nov  3 01:19:55 2010, MaxMem=  786432000 cpu:       0.4
 (Enter /share/apps/G09A02/g09/l101.exe)
 --------
 22 H_CH4
 --------
 Symbolic Z-matrix:
 Charge =  0 Multiplicity = 2
 C
 H1                   C    R1
 H2                   C    R2       H1   A1
 H3                   C    R2       H1   A1       H2    120.     0
 H4                   C    R2       H1   A1       H2   -120.     0
 H5                   H1   R3       C     180.     H2    0.       0
       Variables:
  R1                    1.09032                  
  R2                    1.08943                  
  A1                  109.45515                  
  R3                    2.07126                  
 
 NAtoms=      6 NQM=      6 NQMF=      0 NMic=      0 NMicF=      0 NTot=      6.
                    Isotopes and Nuclear Properties:
 (Nuclear quadrupole moments (NQMom) in fm**2, nuclear magnetic moments (NMagM)
  in nuclear magnetons)

  Atom         1           2           3           4           5           6
 IAtWgt=          12           1           1           1           1           1
 AtmWgt=  12.0000000   1.0078250   1.0078250   1.0078250   1.0078250   1.0078250
 NucSpn=           0           1           1           1           1           1
 AtZEff=   0.0000000   0.0000000   0.0000000   0.0000000   0.0000000   0.0000000
 NQMom=    0.0000000   0.0000000   0.0000000   0.0000000   0.0000000   0.0000000
 NMagM=    0.0000000   2.7928460   2.7928460   2.7928460   2.7928460   2.7928460
 Leave Link  101 at Wed Nov  3 01:19:55 2010, MaxMem=  786432000 cpu:       1.1
 (Enter /share/apps/G09A02/g09/l202.exe)
                          Input orientation:                          
 ---------------------------------------------------------------------
 Center     Atomic      Atomic             Coordinates (Angstroms)
 Number     Number       Type             X           Y           Z
 ---------------------------------------------------------------------
      1          6           0        0.000000    0.000000    0.000000
      2          1           0        0.000000    0.000000    1.090316
      3          1           0        1.027227    0.000000   -0.362855
      4          1           0       -0.513613   -0.889604   -0.362855
      5          1           0       -0.513613    0.889604   -0.362855
      6          1           0        0.000000    0.000000    3.161577
 ---------------------------------------------------------------------
                    Distance matrix (angstroms):
                    1          2          3          4          5
     1  C    0.000000
     2  H    1.090316   0.000000
     3  H    1.089430   1.779579   0.000000
     4  H    1.089430   1.779579   1.779209   0.000000
     5  H    1.089430   1.779579   1.779209   1.779209   0.000000
     6  H    3.161577   2.071262   3.671079   3.671079   3.671079
                    6
     6  H    0.000000
 Symmetry turned off by external request.
 Stoichiometry    CH5(2)
 Framework group  C3V[C3(HHC),3SGV(H)]
 Deg. of freedom     4
 Full point group                 C3V     NOp   6
 Rotational constants (GHZ):    158.4084496     39.8921356     39.8921356
 Leave Link  202 at Wed Nov  3 01:19:55 2010, MaxMem=  786432000 cpu:       0.1
 (Enter /share/apps/G09A02/g09/l301.exe)
 Standard basis: 6-311+G(3df,2p) (5D, 7F)
 Ernie: Thresh=  0.10000D-02 Tol=  0.10000D-05 Strict=F.
 Integral buffers will be    131072 words long.
 Raffenetti 2 integral format.
 Two-electron integral symmetry is turned off.
    84 basis functions,   113 primitive gaussians,    90 cartesian basis functions
     6 alpha electrons        5 beta electrons
       nuclear repulsion energy        15.1318795690 Hartrees.
 IExCor=10402 DFT=T Ex=LC-B+HF Corr=LYP ExCW=0 ScaHFX=  1.000000
 ScaDFX=  1.000000  1.000000  1.000000  1.000000 ScalE2=  1.000000  1.000000
 IRadAn=      0 IRanWt=     -1 IRanGd=            0 ICorTp=0
  HFx wShort=  0.000000 wLong=  0.470000 cFull=  0.000000 cShort=  0.000000 cLong=  1.000000
  DFx wShort=  0.000000 wLong=  0.470000 cFull=  0.000000 cShort=  0.000000 cLong=  1.000000
 NAtoms=    6 NActive=    6 NUniq=    6 SFac= 7.50D-01 NAtFMM=   80 NAOKFM=F Big=F
 Leave Link  301 at Wed Nov  3 01:19:56 2010, MaxMem=  786432000 cpu:       0.7
 (Enter /share/apps/G09A02/g09/l302.exe)
 NPDir=0 NMtPBC=     1 NCelOv=     1 NCel=       1 NClECP=     1 NCelD=      1
         NCelK=      1 NCelE2=     1 NClLst=     1 CellRange=     0.0.
 One-electron integrals computed using PRISM.
 NBasis=    84 RedAO= T  NBF=    84
 NBsUse=    84 1.00D-06 NBFU=    84
 Precomputing XC quadrature grid using
 IXCGrd= 2 IRadAn=           0 IRanWt=          -1 IRanGd=           0 AccXCQ= 1.00D-10.
 NRdTot=     383 NPtTot=       48740 NUsed=       51512 NTot=       51544
 NSgBfM=    90    90    90    90    90 NAtAll=     6     6.
 Leave Link  302 at Wed Nov  3 01:19:56 2010, MaxMem=  786432000 cpu:       2.5
 (Enter /share/apps/G09A02/g09/l303.exe)
 DipDrv:  MaxL=1.
 Leave Link  303 at Wed Nov  3 01:19:56 2010, MaxMem=  786432000 cpu:       0.4
 (Enter /share/apps/G09A02/g09/l401.exe)
 Harris functional with IExCor=10402 diagonalized for initial guess.
 ExpMin= 4.38D-02 ExpMax= 4.56D+03 ExpMxC= 6.82D+02 IAcc=2 IRadAn=         0 AccDes= 0.00D+00
 HarFok:  IExCor=10402 AccDes= 0.00D+00 IRadAn=         0 IDoV= 1
 ScaDFX=  1.000000  1.000000  1.000000  1.000000
 FoFCou: FMM=F IPFlag=           0 FMFlag=      100000 FMFlg1=           0
         NFxFlg=           0 DoJE=T BraDBF=F KetDBF=T FulRan=T
         Omega=  0.000000  0.000000  1.000000  0.000000  0.000000 ICntrl=     500 IOpCl=  0
         NMat0=    1 NMatS0=    1 NMatT0=    0 NMatD0=    1 NMtDS0=    0 NMtDT0=    0
         I1Cent=           4 NGrid=           0.
 Symmetry not used in FoFCou.
 Harris En= -38.5633687576320    
 Initial guess <Sx>= 0.0000 <Sy>= 0.0000 <Sz>= 0.5000 <S**2>= 0.7500 S= 0.5000
 Leave Link  401 at Wed Nov  3 01:19:56 2010, MaxMem=  786432000 cpu:       3.6
 (Enter /share/apps/G09A02/g09/l502.exe)
 UHF open shell SCF:
 Requested convergence on RMS density matrix=1.00D-08 within 128 cycles.
 Requested convergence on MAX density matrix=1.00D-06.
 Requested convergence on             energy=1.00D-06.
 No special actions if energy rises.
 Using DIIS extrapolation, IDIIS=  1040.
 Two-electron integral symmetry not used.
        51445 words used for storage of precomputed grid.
 IEnd=       95163 IEndB=       95163 NGot=   786432000 MDV=   786361668
 LenX=   786361668 LenY=   786353127
 Fock matrices will be formed incrementally for  20 cycles.

 Cycle   1  Pass 1  IDiag  1:
 FoFJK:  IHMeth= 1 ICntrl=     0 DoSepK=T KAlg= 1 I1Cent= 0 FoldK=F
 FoFCou: FMM=F IPFlag=           0 FMFlag=      100000 FMFlg1=           0
         NFxFlg=           0 DoJE=T BraDBF=F KetDBF=F FulRan=T
         Omega=  0.000000  0.000000  1.000000  0.000000  0.000000 ICntrl=     500 IOpCl=  0
         NMat0=    1 NMatS0=    1 NMatT0=    0 NMatD0=    1 NMtDS0=    0 NMtDT0=    0
         I1Cent=           0 NGrid=           0.
 Symmetry not used in FoFCou.
 E= -40.7962516488320    
 DIIS: error= 3.47D-02 at cycle   1 NSaved=   1.
 NSaved= 1 IEnMin= 1 EnMin= -40.7962516488320     IErMin= 1 ErrMin= 3.47D-02
 ErrMax= 3.47D-02 EMaxC= 1.00D-01 BMatC= 2.61D-01 BMatP= 2.61D-01
 IDIUse=3 WtCom= 6.53D-01 WtEn= 3.47D-01
 Coeff-Com:  0.100D+01
 Coeff-En:   0.100D+01
 Coeff:      0.100D+01
 Gap=     0.508 Goal=   None    Shift=    0.000
 Gap=     0.352 Goal=   None    Shift=    0.000
 GapD=    0.352 DampG=1.000 DampE=0.500 DampFc=0.5000 IDamp=-1.
 Damping current iteration by 5.00D-01
 RMSDP=5.48D-03 MaxDP=2.02D-01              OVMax= 1.65D-01

 Cycle   2  Pass 1  IDiag  1:
 RMSU=  2.05D-03    CP:  8.80D-01
 FoFJK:  IHMeth= 1 ICntrl=     0 DoSepK=T KAlg= 1 I1Cent= 0 FoldK=F
 E= -40.8393729253490     Delta-E=       -0.043121276517 Rises=F Damp=T
 DIIS: error= 1.12D-02 at cycle   2 NSaved=   2.
 NSaved= 2 IEnMin= 2 EnMin= -40.8393729253490     IErMin= 2 ErrMin= 1.12D-02
 ErrMax= 1.12D-02 EMaxC= 1.00D-01 BMatC= 2.18D-02 BMatP= 2.61D-01
 IDIUse=3 WtCom= 8.88D-01 WtEn= 1.12D-01
 Coeff-Com: -0.216D+00 0.122D+01
 Coeff-En:   0.000D+00 0.100D+01
 Coeff:     -0.192D+00 0.119D+01
 Gap=     0.540 Goal=   None    Shift=    0.000
 Gap=     0.473 Goal=   None    Shift=    0.000
 RMSDP=3.10D-03 MaxDP=1.27D-01 DE=-4.31D-02 OVMax= 5.12D-02

 Cycle   3  Pass 1  IDiag  1:
 RMSU=  9.71D-04    CP:  7.64D-01  2.07D+00
 FoFJK:  IHMeth= 1 ICntrl=     0 DoSepK=T KAlg= 1 I1Cent= 0 FoldK=F
 E= -40.8821074138276     Delta-E=       -0.042734488479 Rises=F Damp=F
 DIIS: error= 2.58D-03 at cycle   3 NSaved=   3.
 NSaved= 3 IEnMin= 3 EnMin= -40.8821074138276     IErMin= 3 ErrMin= 2.58D-03
 ErrMax= 2.58D-03 EMaxC= 1.00D-01 BMatC= 1.01D-03 BMatP= 2.18D-02
 IDIUse=3 WtCom= 9.74D-01 WtEn= 2.58D-02
 Coeff-Com:  0.381D-01-0.280D+00 0.124D+01
 Coeff-En:   0.000D+00 0.000D+00 0.100D+01
 Coeff:      0.371D-01-0.273D+00 0.124D+01
 Gap=     0.508 Goal=   None    Shift=    0.000
 Gap=     0.505 Goal=   None    Shift=    0.000
 RMSDP=7.40D-04 MaxDP=2.89D-02 DE=-4.27D-02 OVMax= 3.63D-02

 Cycle   4  Pass 1  IDiag  1:
 RMSU=  3.51D-04    CP:  7.41D-01  2.26D+00  1.31D+00
 FoFJK:  IHMeth= 1 ICntrl=     0 DoSepK=T KAlg= 1 I1Cent= 0 FoldK=F
 E= -40.8831282900667     Delta-E=       -0.001020876239 Rises=F Damp=F
 DIIS: error= 4.74D-04 at cycle   4 NSaved=   4.
 NSaved= 4 IEnMin= 4 EnMin= -40.8831282900667     IErMin= 4 ErrMin= 4.74D-04
 ErrMax= 4.74D-04 EMaxC= 1.00D-01 BMatC= 3.48D-05 BMatP= 1.01D-03
 IDIUse=3 WtCom= 9.95D-01 WtEn= 4.74D-03
 Coeff-Com: -0.625D-02 0.443D-02-0.145D+00 0.115D+01
 Coeff-En:   0.000D+00 0.000D+00 0.000D+00 0.100D+01
 Coeff:     -0.622D-02 0.441D-02-0.145D+00 0.115D+01
 Gap=     0.507 Goal=   None    Shift=    0.000
 Gap=     0.504 Goal=   None    Shift=    0.000
 RMSDP=1.17D-04 MaxDP=5.41D-03 DE=-1.02D-03 OVMax= 6.50D-03

 Cycle   5  Pass 1  IDiag  1:
 RMSU=  2.93D-05    CP:  7.37D-01  2.29D+00  1.34D+00  1.20D+00
 FoFJK:  IHMeth= 1 ICntrl=     0 DoSepK=T KAlg= 1 I1Cent= 0 FoldK=F
 E= -40.8831619839000     Delta-E=       -0.000033693833 Rises=F Damp=F
 DIIS: error= 1.76D-04 at cycle   5 NSaved=   5.
 NSaved= 5 IEnMin= 5 EnMin= -40.8831619839000     IErMin= 5 ErrMin= 1.76D-04
 ErrMax= 1.76D-04 EMaxC= 1.00D-01 BMatC= 9.71D-07 BMatP= 3.48D-05
 IDIUse=3 WtCom= 9.98D-01 WtEn= 1.76D-03
 Coeff-Com:  0.116D-02 0.383D-02 0.227D-01-0.351D+00 0.132D+01
 Coeff-En:   0.000D+00 0.000D+00 0.000D+00 0.000D+00 0.100D+01
 Coeff:      0.116D-02 0.383D-02 0.227D-01-0.351D+00 0.132D+01
 Gap=     0.507 Goal=   None    Shift=    0.000
 Gap=     0.503 Goal=   None    Shift=    0.000
 RMSDP=1.66D-05 MaxDP=4.97D-04 DE=-3.37D-05 OVMax= 1.44D-03

 Cycle   6  Pass 1  IDiag  1:
 RMSU=  2.60D-06    CP:  7.38D-01  2.29D+00  1.34D+00  1.21D+00  1.46D+00
 FoFJK:  IHMeth= 1 ICntrl=     0 DoSepK=T KAlg= 1 I1Cent= 0 FoldK=F
 E= -40.8831632269979     Delta-E=       -0.000001243098 Rises=F Damp=F
 DIIS: error= 4.42D-05 at cycle   6 NSaved=   6.
 NSaved= 6 IEnMin= 6 EnMin= -40.8831632269979     IErMin= 6 ErrMin= 4.42D-05
 ErrMax= 4.42D-05 EMaxC= 1.00D-01 BMatC= 6.17D-08 BMatP= 9.71D-07
 IDIUse=1 WtCom= 1.00D+00 WtEn= 0.00D+00
 Coeff-Com: -0.177D-03-0.133D-02-0.312D-02 0.814D-01-0.464D+00 0.139D+01
 Coeff:     -0.177D-03-0.133D-02-0.312D-02 0.814D-01-0.464D+00 0.139D+01
 Gap=     0.508 Goal=   None    Shift=    0.000
 Gap=     0.503 Goal=   None    Shift=    0.000
 RMSDP=3.21D-06 MaxDP=7.26D-05 DE=-1.24D-06 OVMax= 3.53D-04

 Cycle   7  Pass 1  IDiag  1:
 RMSU=  9.51D-07    CP:  7.38D-01  2.29D+00  1.34D+00  1.21D+00  1.51D+00
                    CP:  1.62D+00
 FoFJK:  IHMeth= 1 ICntrl=     0 DoSepK=T KAlg= 1 I1Cent= 0 FoldK=F
 E= -40.8831632997570     Delta-E=       -0.000000072759 Rises=F Damp=F
 DIIS: error= 9.88D-06 at cycle   7 NSaved=   7.
 NSaved= 7 IEnMin= 7 EnMin= -40.8831632997570     IErMin= 7 ErrMin= 9.88D-06
 ErrMax= 9.88D-06 EMaxC= 1.00D-01 BMatC= 5.17D-09 BMatP= 6.17D-08
 IDIUse=1 WtCom= 1.00D+00 WtEn= 0.00D+00
 Coeff-Com: -0.776D-04-0.112D-03-0.923D-03 0.133D-01-0.323D-01-0.156D+00
 Coeff-Com:  0.118D+01
 Coeff:     -0.776D-04-0.112D-03-0.923D-03 0.133D-01-0.323D-01-0.156D+00
 Coeff:      0.118D+01
 Gap=     0.508 Goal=   None    Shift=    0.000
 Gap=     0.503 Goal=   None    Shift=    0.000
 RMSDP=7.93D-07 MaxDP=1.56D-05 DE=-7.28D-08 OVMax= 6.01D-05

 Cycle   8  Pass 1  IDiag  1:
 RMSU=  1.79D-07    CP:  7.38D-01  2.29D+00  1.34D+00  1.21D+00  1.51D+00
                    CP:  1.78D+00  1.40D+00
 FoFJK:  IHMeth= 1 ICntrl=     0 DoSepK=T KAlg= 1 I1Cent= 0 FoldK=F
 E= -40.8831633039744     Delta-E=       -0.000000004217 Rises=F Damp=F
 DIIS: error= 3.39D-06 at cycle   8 NSaved=   8.
 NSaved= 8 IEnMin= 8 EnMin= -40.8831633039744     IErMin= 8 ErrMin= 3.39D-06
 ErrMax= 3.39D-06 EMaxC= 1.00D-01 BMatC= 6.41D-10 BMatP= 5.17D-09
 IDIUse=1 WtCom= 1.00D+00 WtEn= 0.00D+00
 Coeff-Com:  0.380D-04 0.191D-03 0.635D-03-0.134D-01 0.674D-01-0.123D+00
 Coeff-Com: -0.314D+00 0.138D+01
 Coeff:      0.380D-04 0.191D-03 0.635D-03-0.134D-01 0.674D-01-0.123D+00
 Coeff:     -0.314D+00 0.138D+01
 Gap=     0.508 Goal=   None    Shift=    0.000
 Gap=     0.503 Goal=   None    Shift=    0.000
 RMSDP=3.15D-07 MaxDP=7.85D-06 DE=-4.22D-09 OVMax= 1.93D-05

 Cycle   9  Pass 1  IDiag  1:
 RMSU=  5.91D-08    CP:  7.38D-01  2.29D+00  1.34D+00  1.21D+00  1.51D+00
                    CP:  1.82D+00  1.58D+00  1.63D+00
 FoFJK:  IHMeth= 1 ICntrl=     0 DoSepK=T KAlg= 1 I1Cent= 0 FoldK=F
 E= -40.8831633045078     Delta-E=       -0.000000000533 Rises=F Damp=F
 DIIS: error= 6.32D-07 at cycle   9 NSaved=   9.
 NSaved= 9 IEnMin= 9 EnMin= -40.8831633045078     IErMin= 9 ErrMin= 6.32D-07
 ErrMax= 6.32D-07 EMaxC= 1.00D-01 BMatC= 3.00D-11 BMatP= 6.41D-10
 IDIUse=1 WtCom= 1.00D+00 WtEn= 0.00D+00
 Coeff-Com: -0.201D-05-0.479D-04-0.131D-03 0.299D-02-0.171D-01 0.418D-01
 Coeff-Com:  0.306D-01-0.407D+00 0.135D+01
 Coeff:     -0.201D-05-0.479D-04-0.131D-03 0.299D-02-0.171D-01 0.418D-01
 Coeff:      0.306D-01-0.407D+00 0.135D+01
 Gap=     0.508 Goal=   None    Shift=    0.000
 Gap=     0.503 Goal=   None    Shift=    0.000
 RMSDP=7.95D-08 MaxDP=2.12D-06 DE=-5.33D-10 OVMax= 3.81D-06

 Cycle  10  Pass 1  IDiag  1:
 RMSU=  2.12D-08    CP:  7.38D-01  2.29D+00  1.34D+00  1.21D+00  1.51D+00
                    CP:  1.82D+00  1.59D+00  1.75D+00  1.46D+00
 FoFJK:  IHMeth= 1 ICntrl=     0 DoSepK=T KAlg= 1 I1Cent= 0 FoldK=F
 E= -40.8831633045328     Delta-E=       -0.000000000025 Rises=F Damp=F
 DIIS: error= 1.13D-07 at cycle  10 NSaved=  10.
 NSaved=10 IEnMin=10 EnMin= -40.8831633045328     IErMin=10 ErrMin= 1.13D-07
 ErrMax= 1.13D-07 EMaxC= 1.00D-01 BMatC= 1.46D-12 BMatP= 3.00D-11
 IDIUse=1 WtCom= 1.00D+00 WtEn= 0.00D+00
 Coeff-Com: -0.109D-05 0.117D-04 0.235D-04-0.634D-03 0.397D-02-0.112D-01
 Coeff-Com:  0.102D-02 0.965D-01-0.512D+00 0.142D+01
 Coeff:     -0.109D-05 0.117D-04 0.235D-04-0.634D-03 0.397D-02-0.112D-01
 Coeff:      0.102D-02 0.965D-01-0.512D+00 0.142D+01
 Gap=     0.508 Goal=   None    Shift=    0.000
 Gap=     0.503 Goal=   None    Shift=    0.000
 RMSDP=1.84D-08 MaxDP=4.59D-07 DE=-2.51D-11 OVMax= 7.88D-07

 Cycle  11  Pass 1  IDiag  1:
 RMSU=  4.15D-09    CP:  7.38D-01  2.29D+00  1.34D+00  1.21D+00  1.51D+00
                    CP:  1.82D+00  1.59D+00  1.76D+00  1.55D+00  1.42D+00
 FoFJK:  IHMeth= 1 ICntrl=     0 DoSepK=T KAlg= 1 I1Cent= 0 FoldK=F
 E= -40.8831633045342     Delta-E=       -0.000000000001 Rises=F Damp=F
 DIIS: error= 3.17D-08 at cycle  11 NSaved=  11.
 NSaved=11 IEnMin=11 EnMin= -40.8831633045342     IErMin=11 ErrMin= 3.17D-08
 ErrMax= 3.17D-08 EMaxC= 1.00D-01 BMatC= 1.19D-13 BMatP= 1.46D-12
 IDIUse=1 WtCom= 1.00D+00 WtEn= 0.00D+00
 Coeff-Com:  0.518D-06-0.337D-05-0.370D-05 0.154D-03-0.102D-02 0.312D-02
 Coeff-Com: -0.249D-02-0.210D-01 0.149D+00-0.615D+00 0.149D+01
 Coeff:      0.518D-06-0.337D-05-0.370D-05 0.154D-03-0.102D-02 0.312D-02
 Coeff:     -0.249D-02-0.210D-01 0.149D+00-0.615D+00 0.149D+01
 Gap=     0.508 Goal=   None    Shift=    0.000
 Gap=     0.503 Goal=   None    Shift=    0.000
 RMSDP=4.62D-09 MaxDP=6.83D-08 DE=-1.39D-12 OVMax= 1.83D-07

 SCF Done:  E(ULC-B+HF-LYP) =  -40.8831633045     A.U. after   11 cycles
             Convg  =    0.4623D-08             -V/T =  2.0049
 <Sx>= 0.0000 <Sy>= 0.0000 <Sz>= 0.5000 <S**2>= 0.7503 S= 0.5002
 <L.S>= 0.000000000000E+00
 KE= 4.068212080537D+01 PE=-1.244137593074D+02 EE= 2.771659562853D+01
 Annihilation of the first spin contaminant:
 S**2 before annihilation     0.7503,   after     0.7500
 Leave Link  502 at Wed Nov  3 01:20:29 2010, MaxMem=  786432000 cpu:     256.3
 (Enter /share/apps/G09A02/g09/l601.exe)
 Copying SCF densities to generalized density rwf, IOpCl= 1 IROHF=0.

 **********************************************************************

            Population analysis using the SCF density.

 **********************************************************************

 Alpha  occ. eigenvalues --  -10.11388  -0.86076  -0.53665  -0.52583  -0.52583
 Alpha  occ. eigenvalues --   -0.44198
 Alpha virt. eigenvalues --    0.06558   0.09539   0.09539   0.11068   0.22593
 Alpha virt. eigenvalues --    0.22593   0.25424   0.26794   0.35650   0.36530
 Alpha virt. eigenvalues --    0.36530   0.41858   0.41858   0.44902   0.64397
 Alpha virt. eigenvalues --    0.64397   0.67684   0.69423   0.69423   0.70726
 Alpha virt. eigenvalues --    0.77528   0.80213   0.80213   0.80941   0.98590
 Alpha virt. eigenvalues --    0.99131   1.00047   1.00047   1.10243   1.10243
 Alpha virt. eigenvalues --    1.25463   1.25464   1.32681   1.40868   1.40868
 Alpha virt. eigenvalues --    1.45017   1.69705   2.06599   2.06599   2.07349
 Alpha virt. eigenvalues --    2.07716   2.07716   2.40846   2.54647   2.78709
 Alpha virt. eigenvalues --    2.78709   2.81448   3.08954   3.08959   3.08959
 Alpha virt. eigenvalues --    3.43777   3.43777   3.46411   3.65064   3.65064
 Alpha virt. eigenvalues --    3.65799   3.81755   3.81755   4.04786   4.09421
 Alpha virt. eigenvalues --    4.31084   4.31084   4.34202   4.35545   4.35545
 Alpha virt. eigenvalues --    4.58710   4.58710   4.58715   5.04504   5.89272
 Alpha virt. eigenvalues --    5.89272   5.89409   7.30216   7.30216   7.91354
 Alpha virt. eigenvalues --    7.91354   7.92603  24.29042
  Beta  occ. eigenvalues --  -10.11335  -0.85918  -0.52587  -0.52548  -0.52548
  Beta virt. eigenvalues --   -0.02203   0.06944   0.09427   0.09428   0.11580
  Beta virt. eigenvalues --    0.22595   0.22595   0.25836   0.27060   0.36534
  Beta virt. eigenvalues --    0.36534   0.38765   0.41817   0.41817   0.48363
  Beta virt. eigenvalues --    0.64583   0.64583   0.67598   0.71041   0.73319
  Beta virt. eigenvalues --    0.73319   0.78375   0.80205   0.80205   0.81549
  Beta virt. eigenvalues --    0.99130   0.99899   1.00163   1.00163   1.10251
  Beta virt. eigenvalues --    1.10251   1.25473   1.25474   1.32964   1.40895
  Beta virt. eigenvalues --    1.40895   1.45699   1.69974   2.06663   2.06663
  Beta virt. eigenvalues --    2.07804   2.07804   2.08376   2.53137   2.61612
  Beta virt. eigenvalues --    2.78759   2.78759   2.81759   3.08976   3.09110
  Beta virt. eigenvalues --    3.09110   3.43870   3.43870   3.46636   3.65180
  Beta virt. eigenvalues --    3.65180   3.66880   3.97035   3.97035   4.07347
  Beta virt. eigenvalues --    4.19773   4.31112   4.31112   4.35234   4.35537
  Beta virt. eigenvalues --    4.35537   4.58733   4.58742   4.58742   5.04708
  Beta virt. eigenvalues --    5.89303   5.89303   5.89513   7.30373   7.30373
  Beta virt. eigenvalues --    7.91449   7.91450   7.92817  24.29113
          Condensed to atoms (all electrons):
              1          2          3          4          5          6
     1  C    5.088103   0.392178   0.402418   0.402418   0.402418   0.000639
     2  H    0.392178   0.478168  -0.016866  -0.016866  -0.016866  -0.007767
     3  H    0.402418  -0.016866   0.482578  -0.017326  -0.017326   0.000051
     4  H    0.402418  -0.016866  -0.017326   0.482577  -0.017326   0.000051
     5  H    0.402418  -0.016866  -0.017326  -0.017326   0.482577   0.000051
     6  H    0.000639  -0.007767   0.000051   0.000051   0.000051   1.006235
 Mulliken atomic charges:
              1
     1  C   -0.688174
     2  H    0.188019
     3  H    0.166471
     4  H    0.166472
     5  H    0.166472
     6  H    0.000740
 Sum of Mulliken atomic charges =   0.00000
 Mulliken charges with hydrogens summed into heavy atoms:
              1
     1  C    0.000000
 Sum of Mulliken charges with hydrogens summed into heavy atoms =   0.00000
          Atomic-Atomic Spin Densities.
              1          2          3          4          5          6
     1  C    0.035405   0.003919  -0.000327  -0.000327  -0.000327  -0.002779
     2  H    0.003919  -0.015695   0.000813   0.000813   0.000813  -0.013640
     3  H   -0.000327   0.000813  -0.000536  -0.000168  -0.000168   0.000167
     4  H   -0.000327   0.000813  -0.000168  -0.000537  -0.000168   0.000167
     5  H   -0.000327   0.000813  -0.000168  -0.000168  -0.000537   0.000167
     6  H   -0.002779  -0.013640   0.000167   0.000167   0.000167   1.003992
 Mulliken atomic spin densities:
              1
     1  C    0.035563
     2  H   -0.022976
     3  H   -0.000220
     4  H   -0.000221
     5  H   -0.000221
     6  H    0.988074
 Sum of Mulliken atomic spin densities =   1.00000
 Electronic spatial extent (au):  <R**2>=             74.9065
 Charge=              0.0000 electrons
 Dipole moment (field-independent basis, Debye):
    X=              0.0000    Y=              0.0000    Z=             -0.0344  Tot=              0.0344
 Quadrupole moment (field-independent basis, Debye-Ang):
   XX=             -9.9309   YY=             -9.9309   ZZ=            -10.0672
   XY=              0.0000   XZ=              0.0000   YZ=              0.0000
 Traceless Quadrupole moment (field-independent basis, Debye-Ang):
   XX=              0.0454   YY=              0.0454   ZZ=             -0.0909
   XY=              0.0000   XZ=              0.0000   YZ=              0.0000
 Octapole moment (field-independent basis, Debye-Ang**2):
  XXX=              0.6639  YYY=              0.0000  ZZZ=            -13.0107  XYY=             -0.6639
  XXY=              0.0000  XXZ=             -4.9718  XZZ=              0.0000  YZZ=              0.0000
  YYZ=             -4.9718  XYZ=              0.0000
 Hexadecapole moment (field-independent basis, Debye-Ang**3):
 XXXX=            -18.4601 YYYY=            -18.4601 ZZZZ=           -105.0142 XXXY=              0.0000
 XXXZ=             -0.4229 YYYX=              0.0000 YYYZ=              0.0000 ZZZX=              0.0000
 ZZZY=              0.0000 XXYY=             -6.1534 XXZZ=            -20.7271 YYZZ=            -20.7271
 XXYZ=              0.0000 YYXZ=              0.4229 ZZXY=              0.0000
 N-N= 1.513187956897D+01 E-N=-1.852231888409D+02  KE= 6.075603851109D+01
                          Isotropic Fermi Contact Couplings
        Atom                 a.u.       MegaHertz       Gauss      10(-4) cm-1
     1  C(13)              0.01287      14.47101       5.16362       4.82701
     2  H(1)               0.00002       0.07381       0.02634       0.02462
     3  H(1)              -0.00016      -0.72429      -0.25845      -0.24160
     4  H(1)              -0.00016      -0.72423      -0.25842      -0.24158
     5  H(1)              -0.00016      -0.72423      -0.25842      -0.24158
     6  H(1)               0.28644    1280.34325     456.85829     427.07654
 --------------------------------------------------------
       Center         ----  Spin Dipole Couplings  ----
                      3XX-RR        3YY-RR        3ZZ-RR
 --------------------------------------------------------
     1   Atom       -0.023063     -0.023063      0.046127
     2   Atom       -0.020728     -0.020728      0.041456
     3   Atom       -0.000284     -0.004721      0.005006
     4   Atom       -0.003612     -0.001393      0.005006
     5   Atom       -0.003612     -0.001393      0.005006
     6   Atom        0.000610      0.000610     -0.001219
 --------------------------------------------------------
                        XY            XZ            YZ
 --------------------------------------------------------
     1   Atom        0.000000      0.000000      0.000000
     2   Atom        0.000000      0.000000      0.000000
     3   Atom        0.000000     -0.003333      0.000000
     4   Atom        0.001921      0.001667      0.002887
     5   Atom       -0.001921      0.001667     -0.002887
     6   Atom        0.000000      0.000000      0.000000
 --------------------------------------------------------


 ---------------------------------------------------------------------------------
              Anisotropic Spin Dipole Couplings in Principal Axis System
 ---------------------------------------------------------------------------------

       Atom             a.u.   MegaHertz   Gauss  10(-4) cm-1        Axes

              Baa    -0.0231    -3.095    -1.104    -1.032  0.0000  1.0000  0.0000
     1 C(13)  Bbb    -0.0231    -3.095    -1.104    -1.032  1.0000  0.0000  0.0000
              Bcc     0.0461     6.190     2.209     2.065  0.0000  0.0000  1.0000
 
              Baa    -0.0207   -11.060    -3.946    -3.689  1.0000  0.0000  0.0000
     2 H(1)   Bbb    -0.0207   -11.060    -3.946    -3.689  0.0000  1.0000  0.0000
              Bcc     0.0415    22.119     7.893     7.378  0.0000  0.0000  1.0000
 
              Baa    -0.0047    -2.519    -0.899    -0.840  0.0000  1.0000  0.0000
     3 H(1)   Bbb    -0.0019    -1.011    -0.361    -0.337  0.9004  0.0000  0.4350
              Bcc     0.0066     3.530     1.260     1.177 -0.4350  0.0000  0.9004
 
              Baa    -0.0047    -2.519    -0.899    -0.840  0.8660 -0.5000  0.0000
     4 H(1)   Bbb    -0.0019    -1.011    -0.361    -0.337  0.4502  0.7798 -0.4350
              Bcc     0.0066     3.530     1.260     1.177  0.2175  0.3767  0.9004
 
              Baa    -0.0047    -2.519    -0.899    -0.840  0.8660  0.5000  0.0000
     5 H(1)   Bbb    -0.0019    -1.011    -0.361    -0.337 -0.4502  0.7798  0.4350
              Bcc     0.0066     3.530     1.260     1.177  0.2175 -0.3767  0.9004
 
              Baa    -0.0012    -0.651    -0.232    -0.217  0.0000  0.0000  1.0000
     6 H(1)   Bbb     0.0006     0.325     0.116     0.109  1.0000  0.0000  0.0000
              Bcc     0.0006     0.325     0.116     0.109  0.0000  1.0000  0.0000
 

 ---------------------------------------------------------------------------------

 No NMR shielding tensors so no spin-rotation constants.
 Leave Link  601 at Wed Nov  3 01:20:29 2010, MaxMem=  786432000 cpu:       3.9
 (Enter /share/apps/G09A02/g09/l9999.exe)
 1\1\GINC-COMPUTE-0-7\SP\ULC-BLYP\6-311+G(3df,2p)\C1H5(2)\WENXINZY\03-N
 ov-2010\0\\#p lc-blyp/6-311+g(3df,2p) nosymm scf=tight\\22 H_CH4\\0,2\
 C\H,1,1.0903157\H,1,1.0894303,2,109.4551536\H,1,1.0894303,2,109.455153
 6,3,120.,0\H,1,1.0894303,2,109.4551536,3,-120.,0\H,2,2.0712618,1,180.,
 3,0.,0\\Version=EM64L-G09RevA.02\HF=-40.8831633\S2=0.750349\S2-1=0.\S2
 A=0.75\RMSD=4.623e-09\Dipole=0.0000002,0.,-0.0135372\Quadrupole=0.0337
 836,0.0337867,-0.0675703,0.,0.,0.\PG=C03V [C3(H1H1C1),3SGV(H1)]\\@


 ... FOR AFTERWARDS A MAN FINDS PLEASURE IN HIS PAINS,
 WHEN HE HAS SUFFERED LONG AND WANDERED FAR.

                                    -- HOMER
 Job cpu time:  0 days  0 hours  4 minutes 30.5 seconds.
 File lengths (MBytes):  RWF=      9 Int=      0 D2E=      0 Chk=      1 Scr=      1
 Normal termination of Gaussian 09 at Wed Nov  3 01:20:29 2010.
