 Entering Gaussian System, Link 0=/share/apps/G09A02/g09/g09
 Input=./.script12553/Job_H_CH4_26.com
 Output=./.script12553/Job_H_CH4_26.log
 Initial command:
 /share/apps/G09A02/g09/l1.exe /state/partition1/wenxinzy/scratch/Gau-15228.inp -scrdir=/state/partition1/wenxinzy/scratch/
 Default is to use a total of   8 processors:
                                8 via shared-memory
                                1 via Linda
 Entering Link 1 = /share/apps/G09A02/g09/l1.exe PID=     15229.
  
 Copyright (c) 1988,1990,1992,1993,1995,1998,2003,2009, Gaussian, Inc.
                  All Rights Reserved.
  
 This is part of the Gaussian(R) 09 program.  It is based on
 the Gaussian(R) 03 system (copyright 2003, Gaussian, Inc.),
 the Gaussian(R) 98 system (copyright 1998, Gaussian, Inc.),
 the Gaussian(R) 94 system (copyright 1995, Gaussian, Inc.),
 the Gaussian 92(TM) system (copyright 1992, Gaussian, Inc.),
 the Gaussian 90(TM) system (copyright 1990, Gaussian, Inc.),
 the Gaussian 88(TM) system (copyright 1988, Gaussian, Inc.),
 the Gaussian 86(TM) system (copyright 1986, Carnegie Mellon
 University), and the Gaussian 82(TM) system (copyright 1983,
 Carnegie Mellon University). Gaussian is a federally registered
 trademark of Gaussian, Inc.
  
 This software contains proprietary and confidential information,
 including trade secrets, belonging to Gaussian, Inc.
  
 This software is provided under written license and may be
 used, copied, transmitted, or stored only in accord with that
 written license.
  
 The following legend is applicable only to US Government
 contracts under FAR:
  
                    RESTRICTED RIGHTS LEGEND
  
 Use, reproduction and disclosure by the US Government is
 subject to restrictions as set forth in subparagraphs (a)
 and (c) of the Commercial Computer Software - Restricted
 Rights clause in FAR 52.227-19.
  
 Gaussian, Inc.
 340 Quinnipiac St., Bldg. 40, Wallingford CT 06492
  
  
 ---------------------------------------------------------------
 Warning -- This program may not be used in any manner that
 competes with the business of Gaussian, Inc. or will provide
 assistance to any competitor of Gaussian, Inc.  The licensee
 of this program is prohibited from giving any competitor of
 Gaussian, Inc. access to this program.  By using this program,
 the user acknowledges that Gaussian, Inc. is engaged in the
 business of creating and licensing software in the field of
 computational chemistry and represents and warrants to the
 licensee that it is not a competitor of Gaussian, Inc. and that
 it will not use this program in any manner prohibited above.
 ---------------------------------------------------------------
  

 Cite this work as:
 Gaussian 09, Revision A.02,
 M. J. Frisch, G. W. Trucks, H. B. Schlegel, G. E. Scuseria, 
 M. A. Robb, J. R. Cheeseman, G. Scalmani, V. Barone, B. Mennucci, 
 G. A. Petersson, H. Nakatsuji, M. Caricato, X. Li, H. P. Hratchian, 
 A. F. Izmaylov, J. Bloino, G. Zheng, J. L. Sonnenberg, M. Hada, 
 M. Ehara, K. Toyota, R. Fukuda, J. Hasegawa, M. Ishida, T. Nakajima, 
 Y. Honda, O. Kitao, H. Nakai, T. Vreven, J. A. Montgomery, Jr., 
 J. E. Peralta, F. Ogliaro, M. Bearpark, J. J. Heyd, E. Brothers, 
 K. N. Kudin, V. N. Staroverov, R. Kobayashi, J. Normand, 
 K. Raghavachari, A. Rendell, J. C. Burant, S. S. Iyengar, J. Tomasi, 
 M. Cossi, N. Rega, J. M. Millam, M. Klene, J. E. Knox, J. B. Cross, 
 V. Bakken, C. Adamo, J. Jaramillo, R. Gomperts, R. E. Stratmann, 
 O. Yazyev, A. J. Austin, R. Cammi, C. Pomelli, J. W. Ochterski, 
 R. L. Martin, K. Morokuma, V. G. Zakrzewski, G. A. Voth, 
 P. Salvador, J. J. Dannenberg, S. Dapprich, A. D. Daniels, 
 O. Farkas, J. B. Foresman, J. V. Ortiz, J. Cioslowski, 
 and D. J. Fox, Gaussian, Inc., Wallingford CT, 2009.
 
 ******************************************
 Gaussian 09:  EM64L-G09RevA.02 11-Jun-2009
                 3-Nov-2010 
 ******************************************
 %chk=/state/partition1/wenxinzy/scratch/H_CH4_26.chk
 %nproc=8
 Will use up to    8 processors via shared memory.
 %mem=6000mb
 -------------------------------------------
 #p lc-blyp/6-311+g(3df,2p) nosymm scf=tight
 -------------------------------------------
 1/38=1/1;
 2/12=2,15=1,17=6,18=5,40=1/2;
 3/5=4,6=6,7=216,11=2,16=1,25=1,30=1,74=1000402/1,2,3;
 4//1;
 5/5=2,32=2,38=5/2;
 6/7=2,8=2,9=2,10=2,28=1/1;
 99/5=1,9=1/99;
 Leave Link    1 at Wed Nov  3 01:22:47 2010, MaxMem=  786432000 cpu:       0.4
 (Enter /share/apps/G09A02/g09/l101.exe)
 --------
 27 H_CH4
 --------
 Symbolic Z-matrix:
 Charge =  0 Multiplicity = 2
 C
 H1                   C    R1
 H2                   C    R2       H1   A1
 H3                   C    R2       H1   A1       H2    120.     0
 H4                   C    R2       H1   A1       H2   -120.     0
 H5                   H1   R3       C     180.     H2    0.       0
       Variables:
  R1                    1.08956                  
  R2                    1.08937                  
  A1                  109.46837                  
  R3                    2.31842                  
 
 NAtoms=      6 NQM=      6 NQMF=      0 NMic=      0 NMicF=      0 NTot=      6.
                    Isotopes and Nuclear Properties:
 (Nuclear quadrupole moments (NQMom) in fm**2, nuclear magnetic moments (NMagM)
  in nuclear magnetons)

  Atom         1           2           3           4           5           6
 IAtWgt=          12           1           1           1           1           1
 AtmWgt=  12.0000000   1.0078250   1.0078250   1.0078250   1.0078250   1.0078250
 NucSpn=           0           1           1           1           1           1
 AtZEff=   0.0000000   0.0000000   0.0000000   0.0000000   0.0000000   0.0000000
 NQMom=    0.0000000   0.0000000   0.0000000   0.0000000   0.0000000   0.0000000
 NMagM=    0.0000000   2.7928460   2.7928460   2.7928460   2.7928460   2.7928460
 Leave Link  101 at Wed Nov  3 01:22:47 2010, MaxMem=  786432000 cpu:       1.0
 (Enter /share/apps/G09A02/g09/l202.exe)
                          Input orientation:                          
 ---------------------------------------------------------------------
 Center     Atomic      Atomic             Coordinates (Angstroms)
 Number     Number       Type             X           Y           Z
 ---------------------------------------------------------------------
      1          6           0        0.000000    0.000000    0.000000
      2          1           0        0.000000    0.000000    1.089563
      3          1           0        1.027082    0.000000   -0.363071
      4          1           0       -0.513541   -0.889479   -0.363071
      5          1           0       -0.513541    0.889479   -0.363071
      6          1           0        0.000000    0.000000    3.407983
 ---------------------------------------------------------------------
                    Distance matrix (angstroms):
                    1          2          3          4          5
     1  C    0.000000
     2  H    1.089563   0.000000
     3  H    1.089366   1.779057   0.000000
     4  H    1.089366   1.779057   1.778959   0.000000
     5  H    1.089366   1.779057   1.778959   1.778959   0.000000
     6  H    3.407983   2.318419   3.908420   3.908420   3.908420
                    6
     6  H    0.000000
 Symmetry turned off by external request.
 Stoichiometry    CH5(2)
 Framework group  C3V[C3(HHC),3SGV(H)]
 Deg. of freedom     4
 Full point group                 C3V     NOp   6
 Rotational constants (GHZ):    158.4528995     35.5838759     35.5838759
 Leave Link  202 at Wed Nov  3 01:22:47 2010, MaxMem=  786432000 cpu:       0.0
 (Enter /share/apps/G09A02/g09/l301.exe)
 Standard basis: 6-311+G(3df,2p) (5D, 7F)
 Ernie: Thresh=  0.10000D-02 Tol=  0.10000D-05 Strict=F.
 Integral buffers will be    131072 words long.
 Raffenetti 2 integral format.
 Two-electron integral symmetry is turned off.
    84 basis functions,   113 primitive gaussians,    90 cartesian basis functions
     6 alpha electrons        5 beta electrons
       nuclear repulsion energy        15.0086831941 Hartrees.
 IExCor=10402 DFT=T Ex=LC-B+HF Corr=LYP ExCW=0 ScaHFX=  1.000000
 ScaDFX=  1.000000  1.000000  1.000000  1.000000 ScalE2=  1.000000  1.000000
 IRadAn=      0 IRanWt=     -1 IRanGd=            0 ICorTp=0
  HFx wShort=  0.000000 wLong=  0.470000 cFull=  0.000000 cShort=  0.000000 cLong=  1.000000
  DFx wShort=  0.000000 wLong=  0.470000 cFull=  0.000000 cShort=  0.000000 cLong=  1.000000
 NAtoms=    6 NActive=    6 NUniq=    6 SFac= 7.50D-01 NAtFMM=   80 NAOKFM=F Big=F
 Leave Link  301 at Wed Nov  3 01:22:47 2010, MaxMem=  786432000 cpu:       0.7
 (Enter /share/apps/G09A02/g09/l302.exe)
 NPDir=0 NMtPBC=     1 NCelOv=     1 NCel=       1 NClECP=     1 NCelD=      1
         NCelK=      1 NCelE2=     1 NClLst=     1 CellRange=     0.0.
 One-electron integrals computed using PRISM.
 NBasis=    84 RedAO= T  NBF=    84
 NBsUse=    84 1.00D-06 NBFU=    84
 Precomputing XC quadrature grid using
 IXCGrd= 2 IRadAn=           0 IRanWt=          -1 IRanGd=           0 AccXCQ= 1.00D-10.
 NRdTot=     384 NPtTot=       48740 NUsed=       51519 NTot=       51551
 NSgBfM=    90    90    90    90    90 NAtAll=     6     6.
 Leave Link  302 at Wed Nov  3 01:22:48 2010, MaxMem=  786432000 cpu:       2.5
 (Enter /share/apps/G09A02/g09/l303.exe)
 DipDrv:  MaxL=1.
 Leave Link  303 at Wed Nov  3 01:22:48 2010, MaxMem=  786432000 cpu:       0.5
 (Enter /share/apps/G09A02/g09/l401.exe)
 Harris functional with IExCor=10402 diagonalized for initial guess.
 ExpMin= 4.38D-02 ExpMax= 4.56D+03 ExpMxC= 6.82D+02 IAcc=2 IRadAn=         0 AccDes= 0.00D+00
 HarFok:  IExCor=10402 AccDes= 0.00D+00 IRadAn=         0 IDoV= 1
 ScaDFX=  1.000000  1.000000  1.000000  1.000000
 FoFCou: FMM=F IPFlag=           0 FMFlag=      100000 FMFlg1=           0
         NFxFlg=           0 DoJE=T BraDBF=F KetDBF=T FulRan=T
         Omega=  0.000000  0.000000  1.000000  0.000000  0.000000 ICntrl=     500 IOpCl=  0
         NMat0=    1 NMatS0=    1 NMatT0=    0 NMatD0=    1 NMtDS0=    0 NMtDT0=    0
         I1Cent=           4 NGrid=           0.
 Symmetry not used in FoFCou.
 Harris En= -38.5636949628318    
 Initial guess <Sx>= 0.0000 <Sy>= 0.0000 <Sz>= 0.5000 <S**2>= 0.7500 S= 0.5000
 Leave Link  401 at Wed Nov  3 01:22:48 2010, MaxMem=  786432000 cpu:       3.7
 (Enter /share/apps/G09A02/g09/l502.exe)
 UHF open shell SCF:
 Requested convergence on RMS density matrix=1.00D-08 within 128 cycles.
 Requested convergence on MAX density matrix=1.00D-06.
 Requested convergence on             energy=1.00D-06.
 No special actions if energy rises.
 Using DIIS extrapolation, IDIIS=  1040.
 Two-electron integral symmetry not used.
        51452 words used for storage of precomputed grid.
 IEnd=       95170 IEndB=       95170 NGot=   786432000 MDV=   786361661
 LenX=   786361661 LenY=   786353120
 Fock matrices will be formed incrementally for  20 cycles.

 Cycle   1  Pass 1  IDiag  1:
 FoFJK:  IHMeth= 1 ICntrl=     0 DoSepK=T KAlg= 1 I1Cent= 0 FoldK=F
 FoFCou: FMM=F IPFlag=           0 FMFlag=      100000 FMFlg1=           0
         NFxFlg=           0 DoJE=T BraDBF=F KetDBF=F FulRan=T
         Omega=  0.000000  0.000000  1.000000  0.000000  0.000000 ICntrl=     500 IOpCl=  0
         NMat0=    1 NMatS0=    1 NMatT0=    0 NMatD0=    1 NMtDS0=    0 NMtDT0=    0
         I1Cent=           0 NGrid=           0.
 Symmetry not used in FoFCou.
 E= -40.7974106737347    
 DIIS: error= 3.25D-02 at cycle   1 NSaved=   1.
 NSaved= 1 IEnMin= 1 EnMin= -40.7974106737347     IErMin= 1 ErrMin= 3.25D-02
 ErrMax= 3.25D-02 EMaxC= 1.00D-01 BMatC= 2.59D-01 BMatP= 2.59D-01
 IDIUse=3 WtCom= 6.75D-01 WtEn= 3.25D-01
 Coeff-Com:  0.100D+01
 Coeff-En:   0.100D+01
 Coeff:      0.100D+01
 Gap=     0.511 Goal=   None    Shift=    0.000
 Gap=     0.350 Goal=   None    Shift=    0.000
 GapD=    0.350 DampG=1.000 DampE=0.500 DampFc=0.5000 IDamp=-1.
 Damping current iteration by 5.00D-01
 RMSDP=5.08D-03 MaxDP=1.92D-01              OVMax= 1.56D-01

 Cycle   2  Pass 1  IDiag  1:
 RMSU=  1.94D-03    CP:  8.92D-01
 FoFJK:  IHMeth= 1 ICntrl=     0 DoSepK=T KAlg= 1 I1Cent= 0 FoldK=F
 E= -40.8401483243697     Delta-E=       -0.042737650635 Rises=F Damp=T
 DIIS: error= 1.01D-02 at cycle   2 NSaved=   2.
 NSaved= 2 IEnMin= 2 EnMin= -40.8401483243697     IErMin= 2 ErrMin= 1.01D-02
 ErrMax= 1.01D-02 EMaxC= 1.00D-01 BMatC= 2.19D-02 BMatP= 2.59D-01
 IDIUse=3 WtCom= 8.99D-01 WtEn= 1.01D-01
 Coeff-Com: -0.219D+00 0.122D+01
 Coeff-En:   0.000D+00 0.100D+01
 Coeff:     -0.197D+00 0.120D+01
 Gap=     0.552 Goal=   None    Shift=    0.000
 Gap=     0.471 Goal=   None    Shift=    0.000
 RMSDP=2.81D-03 MaxDP=1.20D-01 DE=-4.27D-02 OVMax= 4.82D-02

 Cycle   3  Pass 1  IDiag  1:
 RMSU=  9.32D-04    CP:  7.92D-01  2.04D+00
 FoFJK:  IHMeth= 1 ICntrl=     0 DoSepK=T KAlg= 1 I1Cent= 0 FoldK=F
 E= -40.8825358275817     Delta-E=       -0.042387503212 Rises=F Damp=F
 DIIS: error= 2.72D-03 at cycle   3 NSaved=   3.
 NSaved= 3 IEnMin= 3 EnMin= -40.8825358275817     IErMin= 3 ErrMin= 2.72D-03
 ErrMax= 2.72D-03 EMaxC= 1.00D-01 BMatC= 9.76D-04 BMatP= 2.19D-02
 IDIUse=3 WtCom= 9.73D-01 WtEn= 2.72D-02
 Coeff-Com:  0.369D-01-0.279D+00 0.124D+01
 Coeff-En:   0.000D+00 0.000D+00 0.100D+01
 Coeff:      0.359D-01-0.271D+00 0.124D+01
 Gap=     0.513 Goal=   None    Shift=    0.000
 Gap=     0.502 Goal=   None    Shift=    0.000
 RMSDP=6.74D-04 MaxDP=2.96D-02 DE=-4.24D-02 OVMax= 3.66D-02

 Cycle   4  Pass 1  IDiag  1:
 RMSU=  3.19D-04    CP:  7.72D-01  2.22D+00  1.30D+00
 FoFJK:  IHMeth= 1 ICntrl=     0 DoSepK=T KAlg= 1 I1Cent= 0 FoldK=F
 E= -40.8835068552900     Delta-E=       -0.000971027708 Rises=F Damp=F
 DIIS: error= 3.80D-04 at cycle   4 NSaved=   4.
 NSaved= 4 IEnMin= 4 EnMin= -40.8835068552900     IErMin= 4 ErrMin= 3.80D-04
 ErrMax= 3.80D-04 EMaxC= 1.00D-01 BMatC= 2.71D-05 BMatP= 9.76D-04
 IDIUse=3 WtCom= 9.96D-01 WtEn= 3.80D-03
 Coeff-Com: -0.478D-02-0.549D-03-0.120D+00 0.113D+01
 Coeff-En:   0.000D+00 0.000D+00 0.000D+00 0.100D+01
 Coeff:     -0.476D-02-0.547D-03-0.120D+00 0.112D+01
 Gap=     0.511 Goal=   None    Shift=    0.000
 Gap=     0.502 Goal=   None    Shift=    0.000
 RMSDP=9.96D-05 MaxDP=5.07D-03 DE=-9.71D-04 OVMax= 6.05D-03

 Cycle   5  Pass 1  IDiag  1:
 RMSU=  3.12D-05    CP:  7.69D-01  2.25D+00  1.33D+00  1.19D+00
 FoFJK:  IHMeth= 1 ICntrl=     0 DoSepK=T KAlg= 1 I1Cent= 0 FoldK=F
 E= -40.8835316903096     Delta-E=       -0.000024835020 Rises=F Damp=F
 DIIS: error= 1.03D-04 at cycle   5 NSaved=   5.
 NSaved= 5 IEnMin= 5 EnMin= -40.8835316903096     IErMin= 5 ErrMin= 1.03D-04
 ErrMax= 1.03D-04 EMaxC= 1.00D-01 BMatC= 4.62D-07 BMatP= 2.71D-05
 IDIUse=3 WtCom= 9.99D-01 WtEn= 1.03D-03
 Coeff-Com:  0.794D-03 0.358D-02 0.165D-01-0.297D+00 0.128D+01
 Coeff-En:   0.000D+00 0.000D+00 0.000D+00 0.000D+00 0.100D+01
 Coeff:      0.793D-03 0.358D-02 0.165D-01-0.296D+00 0.128D+01
 Gap=     0.511 Goal=   None    Shift=    0.000
 Gap=     0.502 Goal=   None    Shift=    0.000
 RMSDP=1.59D-05 MaxDP=5.85D-04 DE=-2.48D-05 OVMax= 8.51D-04

 Cycle   6  Pass 1  IDiag  1:
 RMSU=  2.11D-06    CP:  7.70D-01  2.25D+00  1.33D+00  1.20D+00  1.44D+00
 FoFJK:  IHMeth= 1 ICntrl=     0 DoSepK=T KAlg= 1 I1Cent= 0 FoldK=F
 E= -40.8835322258401     Delta-E=       -0.000000535531 Rises=F Damp=F
 DIIS: error= 2.65D-05 at cycle   6 NSaved=   6.
 NSaved= 6 IEnMin= 6 EnMin= -40.8835322258401     IErMin= 6 ErrMin= 2.65D-05
 ErrMax= 2.65D-05 EMaxC= 1.00D-01 BMatC= 2.76D-08 BMatP= 4.62D-07
 IDIUse=1 WtCom= 1.00D+00 WtEn= 0.00D+00
 Coeff-Com: -0.181D-03-0.150D-02-0.426D-02 0.100D+00-0.565D+00 0.147D+01
 Coeff:     -0.181D-03-0.150D-02-0.426D-02 0.100D+00-0.565D+00 0.147D+01
 Gap=     0.511 Goal=   None    Shift=    0.000
 Gap=     0.502 Goal=   None    Shift=    0.000
 RMSDP=3.16D-06 MaxDP=9.46D-05 DE=-5.36D-07 OVMax= 2.30D-04

 Cycle   7  Pass 1  IDiag  1:
 RMSU=  6.89D-07    CP:  7.70D-01  2.25D+00  1.33D+00  1.20D+00  1.51D+00
                    CP:  1.61D+00
 FoFJK:  IHMeth= 1 ICntrl=     0 DoSepK=T KAlg= 1 I1Cent= 0 FoldK=F
 E= -40.8835322583299     Delta-E=       -0.000000032490 Rises=F Damp=F
 DIIS: error= 5.27D-06 at cycle   7 NSaved=   7.
 NSaved= 7 IEnMin= 7 EnMin= -40.8835322583299     IErMin= 7 ErrMin= 5.27D-06
 ErrMax= 5.27D-06 EMaxC= 1.00D-01 BMatC= 1.85D-09 BMatP= 2.76D-08
 IDIUse=1 WtCom= 1.00D+00 WtEn= 0.00D+00
 Coeff-Com:  0.216D-04 0.555D-03 0.131D-02-0.341D-01 0.210D+00-0.682D+00
 Coeff-Com:  0.150D+01
 Coeff:      0.216D-04 0.555D-03 0.131D-02-0.341D-01 0.210D+00-0.682D+00
 Coeff:      0.150D+01
 Gap=     0.511 Goal=   None    Shift=    0.000
 Gap=     0.502 Goal=   None    Shift=    0.000
 RMSDP=5.64D-07 MaxDP=1.17D-05 DE=-3.25D-08 OVMax= 3.60D-05

 Cycle   8  Pass 1  IDiag  1:
 RMSU=  1.87D-07    CP:  7.70D-01  2.25D+00  1.33D+00  1.20D+00  1.51D+00
                    CP:  1.74D+00  1.47D+00
 FoFJK:  IHMeth= 1 ICntrl=     0 DoSepK=T KAlg= 1 I1Cent= 0 FoldK=F
 E= -40.8835322600041     Delta-E=       -0.000000001674 Rises=F Damp=F
 DIIS: error= 1.43D-06 at cycle   8 NSaved=   8.
 NSaved= 8 IEnMin= 8 EnMin= -40.8835322600041     IErMin= 8 ErrMin= 1.43D-06
 ErrMax= 1.43D-06 EMaxC= 1.00D-01 BMatC= 1.20D-10 BMatP= 1.85D-09
 IDIUse=1 WtCom= 1.00D+00 WtEn= 0.00D+00
 Coeff-Com:  0.122D-04-0.110D-03-0.164D-03 0.564D-02-0.383D-01 0.153D+00
 Coeff-Com: -0.567D+00 0.145D+01
 Coeff:      0.122D-04-0.110D-03-0.164D-03 0.564D-02-0.383D-01 0.153D+00
 Coeff:     -0.567D+00 0.145D+01
 Gap=     0.511 Goal=   None    Shift=    0.000
 Gap=     0.502 Goal=   None    Shift=    0.000
 RMSDP=1.34D-07 MaxDP=3.61D-06 DE=-1.67D-09 OVMax= 8.68D-06

 Cycle   9  Pass 1  IDiag  1:
 RMSU=  3.81D-08    CP:  7.70D-01  2.25D+00  1.33D+00  1.20D+00  1.51D+00
                    CP:  1.76D+00  1.56D+00  1.40D+00
 FoFJK:  IHMeth= 1 ICntrl=     0 DoSepK=T KAlg= 1 I1Cent= 0 FoldK=F
 E= -40.8835322601081     Delta-E=       -0.000000000104 Rises=F Damp=F
 DIIS: error= 2.45D-07 at cycle   9 NSaved=   9.
 NSaved= 9 IEnMin= 9 EnMin= -40.8835322601081     IErMin= 9 ErrMin= 2.45D-07
 ErrMax= 2.45D-07 EMaxC= 1.00D-01 BMatC= 4.48D-12 BMatP= 1.20D-10
 IDIUse=1 WtCom= 1.00D+00 WtEn= 0.00D+00
 Coeff-Com: -0.296D-05 0.421D-05-0.238D-04 0.922D-04-0.759D-04-0.360D-02
 Coeff-Com:  0.466D-01-0.265D+00 0.122D+01
 Coeff:     -0.296D-05 0.421D-05-0.238D-04 0.922D-04-0.759D-04-0.360D-02
 Coeff:      0.466D-01-0.265D+00 0.122D+01
 Gap=     0.511 Goal=   None    Shift=    0.000
 Gap=     0.502 Goal=   None    Shift=    0.000
 RMSDP=2.27D-08 MaxDP=6.03D-07 DE=-1.04D-10 OVMax= 1.29D-06

 Cycle  10  Pass 1  IDiag  1:
 RMSU=  6.24D-09    CP:  7.70D-01  2.25D+00  1.33D+00  1.20D+00  1.51D+00
                    CP:  1.76D+00  1.56D+00  1.43D+00  1.32D+00
 FoFJK:  IHMeth= 1 ICntrl=     0 DoSepK=T KAlg= 1 I1Cent= 0 FoldK=F
 E= -40.8835322601120     Delta-E=       -0.000000000004 Rises=F Damp=F
 DIIS: error= 6.83D-08 at cycle  10 NSaved=  10.
 NSaved=10 IEnMin=10 EnMin= -40.8835322601120     IErMin=10 ErrMin= 6.83D-08
 ErrMax= 6.83D-08 EMaxC= 1.00D-01 BMatC= 4.54D-13 BMatP= 4.48D-12
 IDIUse=1 WtCom= 1.00D+00 WtEn= 0.00D+00
 Coeff-Com: -0.694D-06 0.731D-05 0.151D-04-0.423D-03 0.287D-02-0.115D-01
 Coeff-Com:  0.401D-01-0.835D-01-0.210D+00 0.126D+01
 Coeff:     -0.694D-06 0.731D-05 0.151D-04-0.423D-03 0.287D-02-0.115D-01
 Coeff:      0.401D-01-0.835D-01-0.210D+00 0.126D+01
 Gap=     0.511 Goal=   None    Shift=    0.000
 Gap=     0.502 Goal=   None    Shift=    0.000
 RMSDP=8.73D-09 MaxDP=1.72D-07 DE=-3.92D-12 OVMax= 3.92D-07

 SCF Done:  E(ULC-B+HF-LYP) =  -40.8835322601     A.U. after   10 cycles
             Convg  =    0.8728D-08             -V/T =  2.0050
 <Sx>= 0.0000 <Sy>= 0.0000 <Sz>= 0.5000 <S**2>= 0.7502 S= 0.5001
 <L.S>= 0.000000000000E+00
 KE= 4.067873109695D+01 PE=-1.241692927177D+02 EE= 2.759834616649D+01
 Annihilation of the first spin contaminant:
 S**2 before annihilation     0.7502,   after     0.7500
 Leave Link  502 at Wed Nov  3 01:23:17 2010, MaxMem=  786432000 cpu:     232.2
 (Enter /share/apps/G09A02/g09/l601.exe)
 Copying SCF densities to generalized density rwf, IOpCl= 1 IROHF=0.

 **********************************************************************

            Population analysis using the SCF density.

 **********************************************************************

 Alpha  occ. eigenvalues --  -10.11349  -0.86001  -0.53118  -0.52545  -0.52545
 Alpha  occ. eigenvalues --   -0.44671
 Alpha virt. eigenvalues --    0.06473   0.09585   0.09585   0.11020   0.22636
 Alpha virt. eigenvalues --    0.22636   0.24598   0.26903   0.35541   0.36699
 Alpha virt. eigenvalues --    0.36699   0.41866   0.41866   0.44558   0.64579
 Alpha virt. eigenvalues --    0.64580   0.67999   0.69292   0.69292   0.70545
 Alpha virt. eigenvalues --    0.75048   0.80250   0.80250   0.80368   0.98618
 Alpha virt. eigenvalues --    0.99164   0.99467   0.99467   1.10261   1.10261
 Alpha virt. eigenvalues --    1.25309   1.25309   1.30762   1.40928   1.40928
 Alpha virt. eigenvalues --    1.42121   1.68814   2.06599   2.06599   2.07242
 Alpha virt. eigenvalues --    2.07781   2.07781   2.36875   2.53217   2.78748
 Alpha virt. eigenvalues --    2.78748   2.80988   3.08955   3.08955   3.08993
 Alpha virt. eigenvalues --    3.43858   3.43858   3.44882   3.63724   3.65117
 Alpha virt. eigenvalues --    3.65117   3.80877   3.80877   3.99126   4.08224
 Alpha virt. eigenvalues --    4.31084   4.31084   4.33464   4.35618   4.35618
 Alpha virt. eigenvalues --    4.58721   4.58743   4.58743   5.02515   5.89339
 Alpha virt. eigenvalues --    5.89339   5.89374   7.30266   7.30266   7.91438
 Alpha virt. eigenvalues --    7.91438   7.92325  24.29216
  Beta  occ. eigenvalues --  -10.11321  -0.85915  -0.52542  -0.52526  -0.52526
  Beta virt. eigenvalues --   -0.02310   0.06822   0.09476   0.09476   0.11502
  Beta virt. eigenvalues --    0.22628   0.22628   0.25000   0.27040   0.36688
  Beta virt. eigenvalues --    0.36688   0.38804   0.41836   0.41836   0.47855
  Beta virt. eigenvalues --    0.64677   0.64677   0.68168   0.70924   0.73355
  Beta virt. eigenvalues --    0.73355   0.76158   0.80243   0.80243   0.80504
  Beta virt. eigenvalues --    0.99164   0.99497   0.99497   0.99943   1.10261
  Beta virt. eigenvalues --    1.10261   1.25307   1.25308   1.31162   1.40939
  Beta virt. eigenvalues --    1.40939   1.42124   1.68829   2.06632   2.06632
  Beta virt. eigenvalues --    2.07798   2.07825   2.07825   2.52944   2.57460
  Beta virt. eigenvalues --    2.78776   2.78776   2.81075   3.09005   3.09029
  Beta virt. eigenvalues --    3.09029   3.43900   3.43900   3.45071   3.64581
  Beta virt. eigenvalues --    3.65206   3.65206   3.96302   3.96302   4.07198
  Beta virt. eigenvalues --    4.13797   4.31098   4.31098   4.33996   4.35614
  Beta virt. eigenvalues --    4.35614   4.58730   4.58761   4.58761   5.02634
  Beta virt. eigenvalues --    5.89356   5.89356   5.89428   7.30350   7.30350
  Beta virt. eigenvalues --    7.91489   7.91490   7.92440  24.29254
          Condensed to atoms (all electrons):
              1          2          3          4          5          6
     1  C    5.078893   0.393518   0.402094   0.402094   0.402094   0.002440
     2  H    0.393518   0.481679  -0.017030  -0.017030  -0.017030  -0.004153
     3  H    0.402094  -0.017030   0.483221  -0.017270  -0.017270  -0.000038
     4  H    0.402094  -0.017030  -0.017270   0.483220  -0.017270  -0.000038
     5  H    0.402094  -0.017030  -0.017270  -0.017270   0.483220  -0.000038
     6  H    0.002440  -0.004153  -0.000038  -0.000038  -0.000038   0.999623
 Mulliken atomic charges:
              1
     1  C   -0.681133
     2  H    0.180047
     3  H    0.166293
     4  H    0.166294
     5  H    0.166294
     6  H    0.002205
 Sum of Mulliken atomic charges =   0.00000
 Mulliken charges with hydrogens summed into heavy atoms:
              1
     1  C    0.000000
 Sum of Mulliken charges with hydrogens summed into heavy atoms =   0.00000
          Atomic-Atomic Spin Densities.
              1          2          3          4          5          6
     1  C    0.023141   0.001885  -0.000322  -0.000322  -0.000322   0.000721
     2  H    0.001885  -0.013991   0.000837   0.000836   0.000836  -0.007105
     3  H   -0.000322   0.000837  -0.000305  -0.000185  -0.000185   0.000018
     4  H   -0.000322   0.000836  -0.000185  -0.000305  -0.000185   0.000018
     5  H   -0.000322   0.000836  -0.000185  -0.000185  -0.000305   0.000018
     6  H    0.000721  -0.007105   0.000018   0.000018   0.000018   0.998681
 Mulliken atomic spin densities:
              1
     1  C    0.024779
     2  H   -0.016702
     3  H   -0.000143
     4  H   -0.000143
     5  H   -0.000143
     6  H    0.992352
 Sum of Mulliken atomic spin densities =   1.00000
 Electronic spatial extent (au):  <R**2>=             80.6052
 Charge=              0.0000 electrons
 Dipole moment (field-independent basis, Debye):
    X=              0.0000    Y=              0.0000    Z=             -0.0068  Tot=              0.0068
 Quadrupole moment (field-independent basis, Debye-Ang):
   XX=             -9.9426   YY=             -9.9426   ZZ=             -9.9433
   XY=              0.0000   XZ=              0.0000   YZ=              0.0000
 Traceless Quadrupole moment (field-independent basis, Debye-Ang):
   XX=              0.0002   YY=              0.0002   ZZ=             -0.0005
   XY=              0.0000   XZ=              0.0000   YZ=              0.0000
 Octapole moment (field-independent basis, Debye-Ang**2):
  XXX=              0.6630  YYY=              0.0000  ZZZ=            -13.5566  XYY=             -0.6630
  XXY=              0.0000  XXZ=             -5.3338  XZZ=              0.0000  YZZ=              0.0000
  YYZ=             -5.3338  XYZ=              0.0000
 Hexadecapole moment (field-independent basis, Debye-Ang**3):
 XXXX=            -18.4828 YYYY=            -18.4828 ZZZZ=           -116.8396 XXXY=              0.0000
 XXXZ=             -0.4223 YYYX=              0.0000 YYYZ=              0.0000 ZZZX=              0.0000
 ZZZY=              0.0000 XXYY=             -6.1609 XXZZ=            -23.0375 YYZZ=            -23.0375
 XXYZ=              0.0000 YYXZ=              0.4223 ZZXY=              0.0000
 N-N= 1.500868319413D+01 E-N=-1.849451312853D+02  KE= 6.076225275958D+01
                          Isotropic Fermi Contact Couplings
        Atom                 a.u.       MegaHertz       Gauss      10(-4) cm-1
     1  C(13)              0.00659       7.40846       2.64352       2.47120
     2  H(1)               0.00029       1.27929       0.45648       0.42672
     3  H(1)              -0.00008      -0.34221      -0.12211      -0.11415
     4  H(1)              -0.00008      -0.34217      -0.12209      -0.11414
     5  H(1)              -0.00008      -0.34217      -0.12209      -0.11414
     6  H(1)               0.28630    1279.72999     456.63947     426.87198
 --------------------------------------------------------
       Center         ----  Spin Dipole Couplings  ----
                      3XX-RR        3YY-RR        3ZZ-RR
 --------------------------------------------------------
     1   Atom       -0.013884     -0.013884      0.027769
     2   Atom       -0.014230     -0.014230      0.028461
     3   Atom       -0.000868     -0.003431      0.004299
     4   Atom       -0.002790     -0.001509      0.004299
     5   Atom       -0.002790     -0.001509      0.004299
     6   Atom        0.000317      0.000317     -0.000633
 --------------------------------------------------------
                        XY            XZ            YZ
 --------------------------------------------------------
     1   Atom        0.000000      0.000000      0.000000
     2   Atom        0.000000      0.000000      0.000000
     3   Atom        0.000000     -0.002392      0.000000
     4   Atom        0.001110      0.001196      0.002071
     5   Atom       -0.001110      0.001196     -0.002071
     6   Atom        0.000000      0.000000      0.000000
 --------------------------------------------------------


 ---------------------------------------------------------------------------------
              Anisotropic Spin Dipole Couplings in Principal Axis System
 ---------------------------------------------------------------------------------

       Atom             a.u.   MegaHertz   Gauss  10(-4) cm-1        Axes

              Baa    -0.0139    -1.863    -0.665    -0.621  0.0000  1.0000  0.0000
     1 C(13)  Bbb    -0.0139    -1.863    -0.665    -0.621  1.0000  0.0000  0.0000
              Bcc     0.0278     3.726     1.330     1.243  0.0000  0.0000  1.0000
 
              Baa    -0.0142    -7.593    -2.709    -2.533  1.0000  0.0000  0.0000
     2 H(1)   Bbb    -0.0142    -7.593    -2.709    -2.533  0.0000  1.0000  0.0000
              Bcc     0.0285    15.185     5.419     5.065  0.0000  0.0000  1.0000
 
              Baa    -0.0034    -1.831    -0.653    -0.611  0.0000  1.0000  0.0000
     3 H(1)   Bbb    -0.0018    -0.963    -0.344    -0.321  0.9311  0.0000  0.3648
              Bcc     0.0052     2.794     0.997     0.932 -0.3648  0.0000  0.9311
 
              Baa    -0.0034    -1.831    -0.653    -0.611  0.8660 -0.5000  0.0000
     4 H(1)   Bbb    -0.0018    -0.963    -0.344    -0.321  0.4655  0.8063 -0.3648
              Bcc     0.0052     2.794     0.997     0.932  0.1824  0.3159  0.9311
 
              Baa    -0.0034    -1.831    -0.653    -0.611  0.8660  0.5000  0.0000
     5 H(1)   Bbb    -0.0018    -0.963    -0.344    -0.321 -0.4655  0.8063  0.3648
              Bcc     0.0052     2.794     0.997     0.932  0.1824 -0.3159  0.9311
 
              Baa    -0.0006    -0.338    -0.121    -0.113  0.0000  0.0000  1.0000
     6 H(1)   Bbb     0.0003     0.169     0.060     0.056  1.0000  0.0000  0.0000
              Bcc     0.0003     0.169     0.060     0.056  0.0000  1.0000  0.0000
 

 ---------------------------------------------------------------------------------

 No NMR shielding tensors so no spin-rotation constants.
 Leave Link  601 at Wed Nov  3 01:23:18 2010, MaxMem=  786432000 cpu:       4.0
 (Enter /share/apps/G09A02/g09/l9999.exe)
 1\1\GINC-COMPUTE-0-7\SP\ULC-BLYP\6-311+G(3df,2p)\C1H5(2)\WENXINZY\03-N
 ov-2010\0\\#p lc-blyp/6-311+g(3df,2p) nosymm scf=tight\\27 H_CH4\\0,2\
 C\H,1,1.0895634\H,1,1.0893663,2,109.4683737\H,1,1.0893663,2,109.468373
 7,3,120.,0\H,1,1.0893663,2,109.4683737,3,-120.,0\H,2,2.3184192,1,180.,
 3,0.,0\\Version=EM64L-G09RevA.02\HF=-40.8835323\S2=0.750157\S2-1=0.\S2
 A=0.75\RMSD=8.728e-09\Dipole=0.0000002,0.,-0.0026683\Quadrupole=0.0001
 778,0.0001807,-0.0003585,0.,-0.0000004,0.\PG=C03V [C3(H1H1C1),3SGV(H1)
 ]\\@


 A CHEMICAL PHYSICIST MAKES PRECISE MEASUREMENTS ON IMPURE COMPOUNDS.
 A THEORETICAL PHYSICAL CHEMIST MAKES IMPRECISE
     MEASUREMENTS ON PURE COMPOUNDS.
 AN EXPERIMENTAL PHYSICAL CHEMIST MAKES IMPRECISE
     MEASUREMENTS ON IMPURE COMPOUNDS.
 Job cpu time:  0 days  0 hours  4 minutes  6.6 seconds.
 File lengths (MBytes):  RWF=      9 Int=      0 D2E=      0 Chk=      1 Scr=      1
 Normal termination of Gaussian 09 at Wed Nov  3 01:23:18 2010.
