 Entering Gaussian System, Link 0=/share/apps/G09A02/g09/g09
 Input=./.script12553/Job_H2_CH3_17.com
 Output=./.script12553/Job_H2_CH3_17.log
 Initial command:
 /share/apps/G09A02/g09/l1.exe /state/partition1/wenxinzy/scratch/Gau-19294.inp -scrdir=/state/partition1/wenxinzy/scratch/
 Default is to use a total of   8 processors:
                                8 via shared-memory
                                1 via Linda
 Entering Link 1 = /share/apps/G09A02/g09/l1.exe PID=     19295.
  
 Copyright (c) 1988,1990,1992,1993,1995,1998,2003,2009, Gaussian, Inc.
                  All Rights Reserved.
  
 This is part of the Gaussian(R) 09 program.  It is based on
 the Gaussian(R) 03 system (copyright 2003, Gaussian, Inc.),
 the Gaussian(R) 98 system (copyright 1998, Gaussian, Inc.),
 the Gaussian(R) 94 system (copyright 1995, Gaussian, Inc.),
 the Gaussian 92(TM) system (copyright 1992, Gaussian, Inc.),
 the Gaussian 90(TM) system (copyright 1990, Gaussian, Inc.),
 the Gaussian 88(TM) system (copyright 1988, Gaussian, Inc.),
 the Gaussian 86(TM) system (copyright 1986, Carnegie Mellon
 University), and the Gaussian 82(TM) system (copyright 1983,
 Carnegie Mellon University). Gaussian is a federally registered
 trademark of Gaussian, Inc.
  
 This software contains proprietary and confidential information,
 including trade secrets, belonging to Gaussian, Inc.
  
 This software is provided under written license and may be
 used, copied, transmitted, or stored only in accord with that
 written license.
  
 The following legend is applicable only to US Government
 contracts under FAR:
  
                    RESTRICTED RIGHTS LEGEND
  
 Use, reproduction and disclosure by the US Government is
 subject to restrictions as set forth in subparagraphs (a)
 and (c) of the Commercial Computer Software - Restricted
 Rights clause in FAR 52.227-19.
  
 Gaussian, Inc.
 340 Quinnipiac St., Bldg. 40, Wallingford CT 06492
  
  
 ---------------------------------------------------------------
 Warning -- This program may not be used in any manner that
 competes with the business of Gaussian, Inc. or will provide
 assistance to any competitor of Gaussian, Inc.  The licensee
 of this program is prohibited from giving any competitor of
 Gaussian, Inc. access to this program.  By using this program,
 the user acknowledges that Gaussian, Inc. is engaged in the
 business of creating and licensing software in the field of
 computational chemistry and represents and warrants to the
 licensee that it is not a competitor of Gaussian, Inc. and that
 it will not use this program in any manner prohibited above.
 ---------------------------------------------------------------
  

 Cite this work as:
 Gaussian 09, Revision A.02,
 M. J. Frisch, G. W. Trucks, H. B. Schlegel, G. E. Scuseria, 
 M. A. Robb, J. R. Cheeseman, G. Scalmani, V. Barone, B. Mennucci, 
 G. A. Petersson, H. Nakatsuji, M. Caricato, X. Li, H. P. Hratchian, 
 A. F. Izmaylov, J. Bloino, G. Zheng, J. L. Sonnenberg, M. Hada, 
 M. Ehara, K. Toyota, R. Fukuda, J. Hasegawa, M. Ishida, T. Nakajima, 
 Y. Honda, O. Kitao, H. Nakai, T. Vreven, J. A. Montgomery, Jr., 
 J. E. Peralta, F. Ogliaro, M. Bearpark, J. J. Heyd, E. Brothers, 
 K. N. Kudin, V. N. Staroverov, R. Kobayashi, J. Normand, 
 K. Raghavachari, A. Rendell, J. C. Burant, S. S. Iyengar, J. Tomasi, 
 M. Cossi, N. Rega, J. M. Millam, M. Klene, J. E. Knox, J. B. Cross, 
 V. Bakken, C. Adamo, J. Jaramillo, R. Gomperts, R. E. Stratmann, 
 O. Yazyev, A. J. Austin, R. Cammi, C. Pomelli, J. W. Ochterski, 
 R. L. Martin, K. Morokuma, V. G. Zakrzewski, G. A. Voth, 
 P. Salvador, J. J. Dannenberg, S. Dapprich, A. D. Daniels, 
 O. Farkas, J. B. Foresman, J. V. Ortiz, J. Cioslowski, 
 and D. J. Fox, Gaussian, Inc., Wallingford CT, 2009.
 
 ******************************************
 Gaussian 09:  EM64L-G09RevA.02 11-Jun-2009
                 3-Nov-2010 
 ******************************************
 %chk=/state/partition1/wenxinzy/scratch/H2_CH3_17.chk
 %nproc=8
 Will use up to    8 processors via shared memory.
 %mem=6000mb
 -------------------------------------------
 #p lc-blyp/6-311+g(3df,2p) nosymm scf=tight
 -------------------------------------------
 1/38=1/1;
 2/12=2,15=1,17=6,18=5,40=1/2;
 3/5=4,6=6,7=216,11=2,16=1,25=1,30=1,74=1000402/1,2,3;
 4//1;
 5/5=2,32=2,38=5/2;
 6/7=2,8=2,9=2,10=2,28=1/1;
 99/5=1,9=1/99;
 Leave Link    1 at Wed Nov  3 01:45:33 2010, MaxMem=  786432000 cpu:       0.4
 (Enter /share/apps/G09A02/g09/l101.exe)
 ---------
 18 H2+CH3
 ---------
 Symbolic Z-matrix:
 Charge =  0 Multiplicity = 2
 C
 H1                   C    R1
 H2                   C    R2       H1   A1
 H3                   C    R2       H1   A1       H2    120.     0
 H4                   C    R2       H1   A1       H2   -120.     0
 H5                   H1   R3       C     180.     H2    0.       0
       Variables:
  R1                    2.36351                  
  R2                    1.07929                  
  A1                   90.6899                   
  R3                    0.74649                  
 
 NAtoms=      6 NQM=      6 NQMF=      0 NMic=      0 NMicF=      0 NTot=      6.
                    Isotopes and Nuclear Properties:
 (Nuclear quadrupole moments (NQMom) in fm**2, nuclear magnetic moments (NMagM)
  in nuclear magnetons)

  Atom         1           2           3           4           5           6
 IAtWgt=          12           1           1           1           1           1
 AtmWgt=  12.0000000   1.0078250   1.0078250   1.0078250   1.0078250   1.0078250
 NucSpn=           0           1           1           1           1           1
 AtZEff=   0.0000000   0.0000000   0.0000000   0.0000000   0.0000000   0.0000000
 NQMom=    0.0000000   0.0000000   0.0000000   0.0000000   0.0000000   0.0000000
 NMagM=    0.0000000   2.7928460   2.7928460   2.7928460   2.7928460   2.7928460
 Leave Link  101 at Wed Nov  3 01:45:33 2010, MaxMem=  786432000 cpu:       1.0
 (Enter /share/apps/G09A02/g09/l202.exe)
                          Input orientation:                          
 ---------------------------------------------------------------------
 Center     Atomic      Atomic             Coordinates (Angstroms)
 Number     Number       Type             X           Y           Z
 ---------------------------------------------------------------------
      1          6           0        0.000000    0.000000    0.000000
      2          1           0        0.000000    0.000000    2.363505
      3          1           0        1.079216    0.000000   -0.012995
      4          1           0       -0.539608   -0.934629   -0.012995
      5          1           0       -0.539608    0.934629   -0.012995
      6          1           0        0.000000    0.000000    3.109998
 ---------------------------------------------------------------------
                    Distance matrix (angstroms):
                    1          2          3          4          5
     1  C    0.000000
     2  H    2.363505   0.000000
     3  H    1.079294   2.610069   0.000000
     4  H    1.079294   2.610069   1.869257   0.000000
     5  H    1.079294   2.610069   1.869257   1.869257   0.000000
     6  H    3.109998   0.746493   3.304209   3.304209   3.304209
                    6
     6  H    0.000000
 Symmetry turned off by external request.
 Stoichiometry    CH5(2)
 Framework group  C3V[C3(HHC),3SGV(H)]
 Deg. of freedom     4
 Full point group                 C3V     NOp   6
 Rotational constants (GHZ):    143.5138841     32.8630225     32.8630225
 Leave Link  202 at Wed Nov  3 01:45:33 2010, MaxMem=  786432000 cpu:       0.0
 (Enter /share/apps/G09A02/g09/l301.exe)
 Standard basis: 6-311+G(3df,2p) (5D, 7F)
 Ernie: Thresh=  0.10000D-02 Tol=  0.10000D-05 Strict=F.
 Integral buffers will be    131072 words long.
 Raffenetti 2 integral format.
 Two-electron integral symmetry is turned off.
    84 basis functions,   113 primitive gaussians,    90 cartesian basis functions
     6 alpha electrons        5 beta electrons
       nuclear repulsion energy        13.8365377922 Hartrees.
 IExCor=10402 DFT=T Ex=LC-B+HF Corr=LYP ExCW=0 ScaHFX=  1.000000
 ScaDFX=  1.000000  1.000000  1.000000  1.000000 ScalE2=  1.000000  1.000000
 IRadAn=      0 IRanWt=     -1 IRanGd=            0 ICorTp=0
  HFx wShort=  0.000000 wLong=  0.470000 cFull=  0.000000 cShort=  0.000000 cLong=  1.000000
  DFx wShort=  0.000000 wLong=  0.470000 cFull=  0.000000 cShort=  0.000000 cLong=  1.000000
 NAtoms=    6 NActive=    6 NUniq=    6 SFac= 7.50D-01 NAtFMM=   80 NAOKFM=F Big=F
 Leave Link  301 at Wed Nov  3 01:45:33 2010, MaxMem=  786432000 cpu:       0.7
 (Enter /share/apps/G09A02/g09/l302.exe)
 NPDir=0 NMtPBC=     1 NCelOv=     1 NCel=       1 NClECP=     1 NCelD=      1
         NCelK=      1 NCelE2=     1 NClLst=     1 CellRange=     0.0.
 One-electron integrals computed using PRISM.
 NBasis=    84 RedAO= T  NBF=    84
 NBsUse=    84 1.00D-06 NBFU=    84
 Precomputing XC quadrature grid using
 IXCGrd= 2 IRadAn=           0 IRanWt=          -1 IRanGd=           0 AccXCQ= 1.00D-10.
 NRdTot=     383 NPtTot=       48302 NUsed=       51074 NTot=       51106
 NSgBfM=    90    90    90    90    90 NAtAll=     6     6.
 Leave Link  302 at Wed Nov  3 01:45:33 2010, MaxMem=  786432000 cpu:       2.7
 (Enter /share/apps/G09A02/g09/l303.exe)
 DipDrv:  MaxL=1.
 Leave Link  303 at Wed Nov  3 01:45:33 2010, MaxMem=  786432000 cpu:       0.4
 (Enter /share/apps/G09A02/g09/l401.exe)
 Harris functional with IExCor=10402 diagonalized for initial guess.
 ExpMin= 4.38D-02 ExpMax= 4.56D+03 ExpMxC= 6.82D+02 IAcc=2 IRadAn=         0 AccDes= 0.00D+00
 HarFok:  IExCor=10402 AccDes= 0.00D+00 IRadAn=         0 IDoV= 1
 ScaDFX=  1.000000  1.000000  1.000000  1.000000
 FoFCou: FMM=F IPFlag=           0 FMFlag=      100000 FMFlg1=           0
         NFxFlg=           0 DoJE=T BraDBF=F KetDBF=T FulRan=T
         Omega=  0.000000  0.000000  1.000000  0.000000  0.000000 ICntrl=     500 IOpCl=  0
         NMat0=    1 NMatS0=    1 NMatT0=    0 NMatD0=    1 NMtDS0=    0 NMtDT0=    0
         I1Cent=           4 NGrid=           0.
 Symmetry not used in FoFCou.
 Harris En= -38.5344339859596    
 Initial guess <Sx>= 0.0000 <Sy>= 0.0000 <Sz>= 0.5000 <S**2>= 0.7500 S= 0.5000
 Leave Link  401 at Wed Nov  3 01:45:34 2010, MaxMem=  786432000 cpu:       3.8
 (Enter /share/apps/G09A02/g09/l502.exe)
 UHF open shell SCF:
 Requested convergence on RMS density matrix=1.00D-08 within 128 cycles.
 Requested convergence on MAX density matrix=1.00D-06.
 Requested convergence on             energy=1.00D-06.
 No special actions if energy rises.
 Using DIIS extrapolation, IDIIS=  1040.
 Two-electron integral symmetry not used.
        51007 words used for storage of precomputed grid.
 IEnd=       94725 IEndB=       94725 NGot=   786432000 MDV=   786362106
 LenX=   786362106 LenY=   786353565
 Fock matrices will be formed incrementally for  20 cycles.

 Cycle   1  Pass 1  IDiag  1:
 FoFJK:  IHMeth= 1 ICntrl=     0 DoSepK=T KAlg= 1 I1Cent= 0 FoldK=F
 FoFCou: FMM=F IPFlag=           0 FMFlag=      100000 FMFlg1=           0
         NFxFlg=           0 DoJE=T BraDBF=F KetDBF=F FulRan=T
         Omega=  0.000000  0.000000  1.000000  0.000000  0.000000 ICntrl=     500 IOpCl=  0
         NMat0=    1 NMatS0=    1 NMatT0=    0 NMatD0=    1 NMtDS0=    0 NMtDT0=    0
         I1Cent=           0 NGrid=           0.
 Symmetry not used in FoFCou.
 E= -40.8543521410404    
 DIIS: error= 1.92D-02 at cycle   1 NSaved=   1.
 NSaved= 1 IEnMin= 1 EnMin= -40.8543521410404     IErMin= 1 ErrMin= 1.92D-02
 ErrMax= 1.92D-02 EMaxC= 1.00D-01 BMatC= 6.36D-02 BMatP= 6.36D-02
 IDIUse=3 WtCom= 8.08D-01 WtEn= 1.92D-01
 Coeff-Com:  0.100D+01
 Coeff-En:   0.100D+01
 Coeff:      0.100D+01
 Gap=     0.387 Goal=   None    Shift=    0.000
 Gap=     0.616 Goal=   None    Shift=    0.000
 GapD=    0.387 DampG=1.000 DampE=0.500 DampFc=0.5000 IDamp=-1.
 Damping current iteration by 5.00D-01
 RMSDP=1.62D-03 MaxDP=6.58D-02              OVMax= 5.38D-02

 Cycle   2  Pass 1  IDiag  1:
 RMSU=  6.12D-04    CP:  9.79D-01
 FoFJK:  IHMeth= 1 ICntrl=     0 DoSepK=T KAlg= 1 I1Cent= 0 FoldK=F
 E= -40.8635601842579     Delta-E=       -0.009208043217 Rises=F Damp=T
 DIIS: error= 8.60D-03 at cycle   2 NSaved=   2.
 NSaved= 2 IEnMin= 2 EnMin= -40.8635601842579     IErMin= 2 ErrMin= 8.60D-03
 ErrMax= 8.60D-03 EMaxC= 1.00D-01 BMatC= 1.01D-02 BMatP= 6.36D-02
 IDIUse=3 WtCom= 9.14D-01 WtEn= 8.60D-02
 Coeff-Com: -0.417D+00 0.142D+01
 Coeff-En:   0.000D+00 0.100D+01
 Coeff:     -0.381D+00 0.138D+01
 Gap=     0.428 Goal=   None    Shift=    0.000
 Gap=     0.567 Goal=   None    Shift=    0.000
 RMSDP=9.81D-04 MaxDP=2.24D-02 DE=-9.21D-03 OVMax= 4.35D-02

 Cycle   3  Pass 1  IDiag  1:
 RMSU=  5.51D-04    CP:  9.68D-01  1.99D+00
 FoFJK:  IHMeth= 1 ICntrl=     0 DoSepK=T KAlg= 1 I1Cent= 0 FoldK=F
 E= -40.8738298958959     Delta-E=       -0.010269711638 Rises=F Damp=F
 DIIS: error= 2.68D-03 at cycle   3 NSaved=   3.
 NSaved= 3 IEnMin= 3 EnMin= -40.8738298958959     IErMin= 3 ErrMin= 2.68D-03
 ErrMax= 2.68D-03 EMaxC= 1.00D-01 BMatC= 7.40D-04 BMatP= 1.01D-02
 IDIUse=3 WtCom= 9.73D-01 WtEn= 2.68D-02
 Coeff-Com: -0.590D-01-0.820D-01 0.114D+01
 Coeff-En:   0.000D+00 0.000D+00 0.100D+01
 Coeff:     -0.574D-01-0.798D-01 0.114D+01
 Gap=     0.431 Goal=   None    Shift=    0.000
 Gap=     0.566 Goal=   None    Shift=    0.000
 RMSDP=3.20D-04 MaxDP=9.29D-03 DE=-1.03D-02 OVMax= 2.16D-02

 Cycle   4  Pass 1  IDiag  1:
 RMSU=  8.02D-05    CP:  9.64D-01  2.28D+00  1.32D+00
 FoFJK:  IHMeth= 1 ICntrl=     0 DoSepK=T KAlg= 1 I1Cent= 0 FoldK=F
 E= -40.8743844293269     Delta-E=       -0.000554533431 Rises=F Damp=F
 DIIS: error= 1.09D-03 at cycle   4 NSaved=   4.
 NSaved= 4 IEnMin= 4 EnMin= -40.8743844293269     IErMin= 4 ErrMin= 1.09D-03
 ErrMax= 1.09D-03 EMaxC= 1.00D-01 BMatC= 5.74D-05 BMatP= 7.40D-04
 IDIUse=3 WtCom= 9.89D-01 WtEn= 1.09D-02
 Coeff-Com:  0.285D-01-0.459D-01-0.337D+00 0.135D+01
 Coeff-En:   0.000D+00 0.000D+00 0.000D+00 0.100D+01
 Coeff:      0.282D-01-0.454D-01-0.333D+00 0.135D+01
 Gap=     0.433 Goal=   None    Shift=    0.000
 Gap=     0.566 Goal=   None    Shift=    0.000
 RMSDP=1.18D-04 MaxDP=3.74D-03 DE=-5.55D-04 OVMax= 9.34D-03

 Cycle   5  Pass 1  IDiag  1:
 RMSU=  1.64D-05    CP:  9.62D-01  2.36D+00  1.44D+00  1.63D+00
 FoFJK:  IHMeth= 1 ICntrl=     0 DoSepK=T KAlg= 1 I1Cent= 0 FoldK=F
 E= -40.8744472295801     Delta-E=       -0.000062800253 Rises=F Damp=F
 DIIS: error= 2.21D-04 at cycle   5 NSaved=   5.
 NSaved= 5 IEnMin= 5 EnMin= -40.8744472295801     IErMin= 5 ErrMin= 2.21D-04
 ErrMax= 2.21D-04 EMaxC= 1.00D-01 BMatC= 3.91D-06 BMatP= 5.74D-05
 IDIUse=3 WtCom= 9.98D-01 WtEn= 2.21D-03
 Coeff-Com: -0.471D-02 0.196D-01 0.545D-01-0.494D+00 0.143D+01
 Coeff-En:   0.000D+00 0.000D+00 0.000D+00 0.000D+00 0.100D+01
 Coeff:     -0.470D-02 0.195D-01 0.544D-01-0.493D+00 0.142D+01
 Gap=     0.433 Goal=   None    Shift=    0.000
 Gap=     0.566 Goal=   None    Shift=    0.000
 RMSDP=2.48D-05 MaxDP=7.02D-04 DE=-6.28D-05 OVMax= 1.63D-03

 Cycle   6  Pass 1  IDiag  1:
 RMSU=  4.79D-06    CP:  9.62D-01  2.36D+00  1.45D+00  1.81D+00  1.67D+00
 FoFJK:  IHMeth= 1 ICntrl=     0 DoSepK=T KAlg= 1 I1Cent= 0 FoldK=F
 E= -40.8744508690727     Delta-E=       -0.000003639493 Rises=F Damp=F
 DIIS: error= 4.41D-05 at cycle   6 NSaved=   6.
 NSaved= 6 IEnMin= 6 EnMin= -40.8744508690727     IErMin= 6 ErrMin= 4.41D-05
 ErrMax= 4.41D-05 EMaxC= 1.00D-01 BMatC= 2.42D-07 BMatP= 3.91D-06
 IDIUse=1 WtCom= 1.00D+00 WtEn= 0.00D+00
 Coeff-Com: -0.123D-02-0.711D-04 0.781D-02 0.188D-01-0.286D+00 0.126D+01
 Coeff:     -0.123D-02-0.711D-04 0.781D-02 0.188D-01-0.286D+00 0.126D+01
 Gap=     0.433 Goal=   None    Shift=    0.000
 Gap=     0.566 Goal=   None    Shift=    0.000
 RMSDP=5.10D-06 MaxDP=9.97D-05 DE=-3.64D-06 OVMax= 2.33D-04

 Cycle   7  Pass 1  IDiag  1:
 RMSU=  1.71D-06    CP:  9.62D-01  2.36D+00  1.45D+00  1.82D+00  1.81D+00
                    CP:  1.60D+00
 FoFJK:  IHMeth= 1 ICntrl=     0 DoSepK=T KAlg= 1 I1Cent= 0 FoldK=F
 E= -40.8744510811247     Delta-E=       -0.000000212052 Rises=F Damp=F
 DIIS: error= 1.54D-05 at cycle   7 NSaved=   7.
 NSaved= 7 IEnMin= 7 EnMin= -40.8744510811247     IErMin= 7 ErrMin= 1.54D-05
 ErrMax= 1.54D-05 EMaxC= 1.00D-01 BMatC= 2.25D-08 BMatP= 2.42D-07
 IDIUse=1 WtCom= 1.00D+00 WtEn= 0.00D+00
 Coeff-Com:  0.710D-03-0.207D-02-0.632D-02 0.463D-01-0.936D-01-0.245D+00
 Coeff-Com:  0.130D+01
 Coeff:      0.710D-03-0.207D-02-0.632D-02 0.463D-01-0.936D-01-0.245D+00
 Coeff:      0.130D+01
 Gap=     0.433 Goal=   None    Shift=    0.000
 Gap=     0.566 Goal=   None    Shift=    0.000
 RMSDP=1.99D-06 MaxDP=3.86D-05 DE=-2.12D-07 OVMax= 9.19D-05

 Cycle   8  Pass 1  IDiag  1:
 RMSU=  3.35D-07    CP:  9.62D-01  2.36D+00  1.45D+00  1.82D+00  1.83D+00
                    CP:  1.87D+00  1.54D+00
 FoFJK:  IHMeth= 1 ICntrl=     0 DoSepK=T KAlg= 1 I1Cent= 0 FoldK=F
 E= -40.8744511026437     Delta-E=       -0.000000021519 Rises=F Damp=F
 DIIS: error= 2.50D-06 at cycle   8 NSaved=   8.
 NSaved= 8 IEnMin= 8 EnMin= -40.8744511026437     IErMin= 8 ErrMin= 2.50D-06
 ErrMax= 2.50D-06 EMaxC= 1.00D-01 BMatC= 8.85D-10 BMatP= 2.25D-08
 IDIUse=1 WtCom= 1.00D+00 WtEn= 0.00D+00
 Coeff-Com:  0.364D-05 0.283D-03 0.931D-03-0.103D-01 0.353D-01-0.248D-01
 Coeff-Com: -0.253D+00 0.125D+01
 Coeff:      0.364D-05 0.283D-03 0.931D-03-0.103D-01 0.353D-01-0.248D-01
 Coeff:     -0.253D+00 0.125D+01
 Gap=     0.433 Goal=   None    Shift=    0.000
 Gap=     0.566 Goal=   None    Shift=    0.000
 RMSDP=3.83D-07 MaxDP=1.02D-05 DE=-2.15D-08 OVMax= 1.75D-05

 Cycle   9  Pass 1  IDiag  1:
 RMSU=  6.80D-08    CP:  9.62D-01  2.36D+00  1.45D+00  1.82D+00  1.83D+00
                    CP:  1.91D+00  1.66D+00  1.48D+00
 FoFJK:  IHMeth= 1 ICntrl=     0 DoSepK=T KAlg= 1 I1Cent= 0 FoldK=F
 E= -40.8744511033542     Delta-E=       -0.000000000711 Rises=F Damp=F
 DIIS: error= 8.30D-07 at cycle   9 NSaved=   9.
 NSaved= 9 IEnMin= 9 EnMin= -40.8744511033542     IErMin= 9 ErrMin= 8.30D-07
 ErrMax= 8.30D-07 EMaxC= 1.00D-01 BMatC= 4.87D-11 BMatP= 8.85D-10
 IDIUse=1 WtCom= 1.00D+00 WtEn= 0.00D+00
 Coeff-Com: -0.371D-04-0.221D-04-0.167D-03 0.242D-02-0.106D-01 0.198D-01
 Coeff-Com:  0.472D-01-0.450D+00 0.139D+01
 Coeff:     -0.371D-04-0.221D-04-0.167D-03 0.242D-02-0.106D-01 0.198D-01
 Coeff:      0.472D-01-0.450D+00 0.139D+01
 Gap=     0.433 Goal=   None    Shift=    0.000
 Gap=     0.566 Goal=   None    Shift=    0.000
 RMSDP=8.67D-08 MaxDP=2.08D-06 DE=-7.11D-10 OVMax= 6.30D-06

 Cycle  10  Pass 1  IDiag  1:
 RMSU=  3.01D-08    CP:  9.62D-01  2.36D+00  1.45D+00  1.82D+00  1.83D+00
                    CP:  1.91D+00  1.66D+00  1.57D+00  1.63D+00
 FoFJK:  IHMeth= 1 ICntrl=     0 DoSepK=T KAlg= 1 I1Cent= 0 FoldK=F
 E= -40.8744511034110     Delta-E=       -0.000000000057 Rises=F Damp=F
 DIIS: error= 3.85D-07 at cycle  10 NSaved=  10.
 NSaved=10 IEnMin=10 EnMin= -40.8744511034110     IErMin=10 ErrMin= 3.85D-07
 ErrMax= 3.85D-07 EMaxC= 1.00D-01 BMatC= 7.37D-12 BMatP= 4.87D-11
 IDIUse=1 WtCom= 1.00D+00 WtEn= 0.00D+00
 Coeff-Com:  0.275D-04-0.160D-04 0.267D-04-0.602D-03 0.372D-02-0.112D-01
 Coeff-Com: -0.704D-02 0.176D+00-0.898D+00 0.174D+01
 Coeff:      0.275D-04-0.160D-04 0.267D-04-0.602D-03 0.372D-02-0.112D-01
 Coeff:     -0.704D-02 0.176D+00-0.898D+00 0.174D+01
 Gap=     0.433 Goal=   None    Shift=    0.000
 Gap=     0.566 Goal=   None    Shift=    0.000
 RMSDP=4.40D-08 MaxDP=1.15D-06 DE=-5.67D-11 OVMax= 2.88D-06

 Cycle  11  Pass 1  IDiag  1:
 RMSU=  9.65D-09    CP:  9.62D-01  2.36D+00  1.45D+00  1.82D+00  1.83D+00
                    CP:  1.90D+00  1.66D+00  1.57D+00  1.92D+00  1.81D+00
 FoFJK:  IHMeth= 1 ICntrl=     0 DoSepK=T KAlg= 1 I1Cent= 0 FoldK=F
 E= -40.8744511034223     Delta-E=       -0.000000000011 Rises=F Damp=F
 DIIS: error= 9.67D-08 at cycle  11 NSaved=  11.
 NSaved=11 IEnMin=11 EnMin= -40.8744511034223     IErMin=11 ErrMin= 9.67D-08
 ErrMax= 9.67D-08 EMaxC= 1.00D-01 BMatC= 4.87D-13 BMatP= 7.37D-12
 IDIUse=1 WtCom= 1.00D+00 WtEn= 0.00D+00
 Coeff-Com: -0.593D-05 0.975D-05 0.799D-05-0.940D-04 0.790D-04 0.138D-02
 Coeff-Com: -0.465D-02 0.125D-02 0.128D+00-0.533D+00 0.141D+01
 Coeff:     -0.593D-05 0.975D-05 0.799D-05-0.940D-04 0.790D-04 0.138D-02
 Coeff:     -0.465D-02 0.125D-02 0.128D+00-0.533D+00 0.141D+01
 Gap=     0.433 Goal=   None    Shift=    0.000
 Gap=     0.566 Goal=   None    Shift=    0.000
 RMSDP=1.01D-08 MaxDP=3.34D-07 DE=-1.13D-11 OVMax= 6.59D-07

 Cycle  12  Pass 1  IDiag  1:
 RMSU=  1.59D-09    CP:  9.62D-01  2.36D+00  1.45D+00  1.82D+00  1.83D+00
                    CP:  1.91D+00  1.66D+00  1.57D+00  1.96D+00  1.97D+00
                    CP:  1.48D+00
 FoFJK:  IHMeth= 1 ICntrl=     0 DoSepK=T KAlg= 1 I1Cent= 0 FoldK=F
 E= -40.8744511034221     Delta-E=        0.000000000000 Rises=F Damp=F
 DIIS: error= 1.28D-08 at cycle  12 NSaved=  12.
 NSaved=12 IEnMin=11 EnMin= -40.8744511034223     IErMin=12 ErrMin= 1.28D-08
 ErrMax= 1.28D-08 EMaxC= 1.00D-01 BMatC= 1.21D-14 BMatP= 4.87D-13
 IDIUse=1 WtCom= 1.00D+00 WtEn= 0.00D+00
 Coeff-Com:  0.552D-06-0.153D-05-0.111D-05 0.299D-04-0.988D-04-0.812D-04
 Coeff-Com:  0.153D-02-0.603D-02-0.138D-02 0.747D-01-0.375D+00 0.131D+01
 Coeff:      0.552D-06-0.153D-05-0.111D-05 0.299D-04-0.988D-04-0.812D-04
 Coeff:      0.153D-02-0.603D-02-0.138D-02 0.747D-01-0.375D+00 0.131D+01
 Gap=     0.433 Goal=   None    Shift=    0.000
 Gap=     0.566 Goal=   None    Shift=    0.000
 RMSDP=1.41D-09 MaxDP=4.05D-08 DE= 2.56D-13 OVMax= 7.81D-08

 SCF Done:  E(ULC-B+HF-LYP) =  -40.8744511034     A.U. after   12 cycles
             Convg  =    0.1409D-08             -V/T =  2.0046
 <Sx>= 0.0000 <Sy>= 0.0000 <Sz>= 0.5000 <S**2>= 0.7539 S= 0.5020
 <L.S>= 0.000000000000E+00
 KE= 4.068614557340D+01 PE=-1.217305242552D+02 EE= 2.633338978620D+01
 Annihilation of the first spin contaminant:
 S**2 before annihilation     0.7539,   after     0.7500
 Leave Link  502 at Wed Nov  3 01:46:09 2010, MaxMem=  786432000 cpu:     281.1
 (Enter /share/apps/G09A02/g09/l601.exe)
 Copying SCF densities to generalized density rwf, IOpCl= 1 IROHF=0.

 **********************************************************************

            Population analysis using the SCF density.

 **********************************************************************

 Alpha  occ. eigenvalues --  -10.14724  -0.85597  -0.56555  -0.55969  -0.55969
 Alpha  occ. eigenvalues --   -0.36339
 Alpha virt. eigenvalues --    0.06957   0.09111   0.09111   0.12072   0.17887
 Alpha virt. eigenvalues --    0.23308   0.23308   0.24825   0.37693   0.37693
 Alpha virt. eigenvalues --    0.38657   0.40269   0.40269   0.49708   0.59420
 Alpha virt. eigenvalues --    0.63101   0.63101   0.67015   0.67015   0.68375
 Alpha virt. eigenvalues --    0.76028   0.79948   0.83595   0.83595   0.94685
 Alpha virt. eigenvalues --    1.03077   1.03077   1.10530   1.16203   1.16203
 Alpha virt. eigenvalues --    1.24940   1.24940   1.35838   1.48917   1.48917
 Alpha virt. eigenvalues --    1.51799   1.66631   1.78716   1.78716   2.14245
 Alpha virt. eigenvalues --    2.15633   2.15633   2.49938   2.54849   2.68822
 Alpha virt. eigenvalues --    2.79739   2.79739   2.87993   3.05541   3.13410
 Alpha virt. eigenvalues --    3.13410   3.16384   3.21146   3.21146   3.60170
 Alpha virt. eigenvalues --    3.60170   3.72639   3.72639   3.97573   4.04359
 Alpha virt. eigenvalues --    4.27714   4.27714   4.35899   4.35899   4.41447
 Alpha virt. eigenvalues --    4.41447   4.52177   4.96415   5.35704   5.73737
 Alpha virt. eigenvalues --    5.73737   5.82381   7.15259   7.15260   7.32099
 Alpha virt. eigenvalues --    7.73497   7.73497  24.22808
  Beta  occ. eigenvalues --  -10.13298  -0.81017  -0.55727  -0.54909  -0.54909
  Beta virt. eigenvalues --    0.01715   0.07123   0.08990   0.08990   0.12880
  Beta virt. eigenvalues --    0.19931   0.23558   0.23558   0.25913   0.38832
  Beta virt. eigenvalues --    0.38832   0.39575   0.40267   0.40267   0.51214
  Beta virt. eigenvalues --    0.60586   0.63504   0.63504   0.67699   0.67699
  Beta virt. eigenvalues --    0.69871   0.77801   0.81196   0.83706   0.83707
  Beta virt. eigenvalues --    0.94647   1.03667   1.03667   1.11153   1.16250
  Beta virt. eigenvalues --    1.16250   1.24990   1.24990   1.37468   1.49456
  Beta virt. eigenvalues --    1.49456   1.53553   1.66716   1.83525   1.83525
  Beta virt. eigenvalues --    2.16650   2.16650   2.17753   2.50526   2.54814
  Beta virt. eigenvalues --    2.69474   2.81151   2.81151   2.93286   3.05941
  Beta virt. eigenvalues --    3.16381   3.16381   3.20902   3.24364   3.24364
  Beta virt. eigenvalues --    3.60550   3.60550   3.73525   3.73525   3.97954
  Beta virt. eigenvalues --    4.04706   4.27353   4.27353   4.36665   4.36665
  Beta virt. eigenvalues --    4.41642   4.41642   4.52893   4.96581   5.36637
  Beta virt. eigenvalues --    5.74334   5.74334   5.82703   7.21588   7.21589
  Beta virt. eigenvalues --    7.40132   7.75122   7.75122  24.24681
          Condensed to atoms (all electrons):
              1          2          3          4          5          6
     1  C    5.411925  -0.012615   0.402132   0.402131   0.402131  -0.018300
     2  H   -0.012615   0.576169  -0.000979  -0.000979  -0.000979   0.427249
     3  H    0.402132  -0.000979   0.440032  -0.019745  -0.019745  -0.000319
     4  H    0.402131  -0.000979  -0.019745   0.440030  -0.019742  -0.000319
     5  H    0.402131  -0.000979  -0.019745  -0.019742   0.440030  -0.000319
     6  H   -0.018300   0.427249  -0.000319  -0.000319  -0.000319   0.612608
 Mulliken atomic charges:
              1
     1  C   -0.587404
     2  H    0.012133
     3  H    0.198623
     4  H    0.198624
     5  H    0.198624
     6  H   -0.020600
 Sum of Mulliken atomic charges =   0.00000
 Mulliken charges with hydrogens summed into heavy atoms:
              1
     1  C    0.000000
 Sum of Mulliken charges with hydrogens summed into heavy atoms =   0.00000
          Atomic-Atomic Spin Densities.
              1          2          3          4          5          6
     1  C    1.069464  -0.008723   0.004523   0.004524   0.004524  -0.016926
     2  H   -0.008723  -0.024095   0.000010   0.000010   0.000010   0.007253
     3  H    0.004523   0.000010  -0.033879   0.002814   0.002814  -0.000115
     4  H    0.004524   0.000010   0.002814  -0.033880   0.002813  -0.000115
     5  H    0.004524   0.000010   0.002814   0.002813  -0.033880  -0.000115
     6  H   -0.016926   0.007253  -0.000115  -0.000115  -0.000115   0.049669
 Mulliken atomic spin densities:
              1
     1  C    1.057387
     2  H   -0.025536
     3  H   -0.023834
     4  H   -0.023834
     5  H   -0.023834
     6  H    0.039651
 Sum of Mulliken atomic spin densities =   1.00000
 Electronic spatial extent (au):  <R**2>=             89.3508
 Charge=              0.0000 electrons
 Dipole moment (field-independent basis, Debye):
    X=              0.0000    Y=              0.0000    Z=             -0.1253  Tot=              0.1253
 Quadrupole moment (field-independent basis, Debye-Ang):
   XX=             -9.4289   YY=             -9.4289   ZZ=            -11.2481
   XY=              0.0000   XZ=              0.0000   YZ=              0.0000
 Traceless Quadrupole moment (field-independent basis, Debye-Ang):
   XX=              0.6064   YY=              0.6064   ZZ=             -1.2128
   XY=              0.0000   XZ=              0.0000   YZ=              0.0000
 Octapole moment (field-independent basis, Debye-Ang**2):
  XXX=              0.9871  YYY=              0.0000  ZZZ=            -14.8753  XYY=             -0.9871
  XXY=              0.0000  XXZ=             -5.9349  XZZ=              0.0000  YZZ=              0.0000
  YYZ=             -5.9349  XYZ=              0.0000
 Hexadecapole moment (field-independent basis, Debye-Ang**3):
 XXXX=            -17.5037 YYYY=            -17.5037 ZZZZ=            -94.2374 XXXY=              0.0000
 XXXZ=             -0.0208 YYYX=              0.0000 YYYZ=              0.0000 ZZZX=              0.0000
 ZZZY=              0.0000 XXYY=             -5.8346 XXZZ=            -22.3263 YYZZ=            -22.3263
 XXYZ=              0.0000 YYXZ=              0.0208 ZZXY=              0.0000
 N-N= 1.383653779217D+01 E-N=-1.794511213321D+02  KE= 6.041363447403D+01
                          Isotropic Fermi Contact Couplings
        Atom                 a.u.       MegaHertz       Gauss      10(-4) cm-1
     1  C(13)              0.02983      33.53223      11.96513      11.18515
     2  H(1)              -0.00366     -16.35065      -5.83432      -5.45399
     3  H(1)              -0.01319     -58.95532     -21.03672     -19.66538
     4  H(1)              -0.01319     -58.95573     -21.03687     -19.66552
     5  H(1)              -0.01319     -58.95573     -21.03687     -19.66552
     6  H(1)               0.01473      65.82021      23.48629      21.95526
 --------------------------------------------------------
       Center         ----  Spin Dipole Couplings  ----
                      3XX-RR        3YY-RR        3ZZ-RR
 --------------------------------------------------------
     1   Atom       -0.594618     -0.594620      1.189238
     2   Atom       -0.021953     -0.021953      0.043905
     3   Atom        0.074744     -0.075247      0.000503
     4   Atom       -0.037749      0.037246      0.000503
     5   Atom       -0.037749      0.037246      0.000503
     6   Atom       -0.004729     -0.004729      0.009457
 --------------------------------------------------------
                        XY            XZ            YZ
 --------------------------------------------------------
     1   Atom        0.000000      0.000000      0.000000
     2   Atom        0.000000      0.000000      0.000000
     3   Atom        0.000000     -0.001470      0.000000
     4   Atom        0.064948      0.000735      0.001273
     5   Atom       -0.064948      0.000735     -0.001273
     6   Atom        0.000000      0.000000      0.000000
 --------------------------------------------------------


 ---------------------------------------------------------------------------------
              Anisotropic Spin Dipole Couplings in Principal Axis System
 ---------------------------------------------------------------------------------

       Atom             a.u.   MegaHertz   Gauss  10(-4) cm-1        Axes

              Baa    -0.5946   -79.792   -28.472   -26.616  0.0000  1.0000  0.0000
     1 C(13)  Bbb    -0.5946   -79.792   -28.472   -26.616  1.0000  0.0000  0.0000
              Bcc     1.1892   159.584    56.944    53.232  0.0000  0.0000  1.0000
 
              Baa    -0.0220   -11.713    -4.179    -3.907  1.0000  0.0000  0.0000
     2 H(1)   Bbb    -0.0220   -11.713    -4.179    -3.907  0.0000  1.0000  0.0000
              Bcc     0.0439    23.426     8.359     7.814  0.0000  0.0000  1.0000
 
              Baa    -0.0752   -40.148   -14.326   -13.392  0.0000  1.0000  0.0000
     3 H(1)   Bbb     0.0005     0.253     0.090     0.084  0.0198  0.0000  0.9998
              Bcc     0.0748    39.895    14.236    13.308  0.9998  0.0000 -0.0198
 
              Baa    -0.0752   -40.148   -14.326   -13.392  0.8660 -0.5000  0.0000
     4 H(1)   Bbb     0.0005     0.253     0.090     0.084 -0.0099 -0.0171  0.9998
              Bcc     0.0748    39.896    14.236    13.308  0.4999  0.8659  0.0198
 
              Baa    -0.0752   -40.148   -14.326   -13.392  0.8660  0.5000  0.0000
     5 H(1)   Bbb     0.0005     0.253     0.090     0.084 -0.0099  0.0171  0.9998
              Bcc     0.0748    39.896    14.236    13.308 -0.4999  0.8659 -0.0198
 
              Baa    -0.0047    -2.523    -0.900    -0.842  1.0000  0.0000  0.0000
     6 H(1)   Bbb    -0.0047    -2.523    -0.900    -0.842  0.0000  1.0000  0.0000
              Bcc     0.0095     5.046     1.801     1.683  0.0000  0.0000  1.0000
 

 ---------------------------------------------------------------------------------

 No NMR shielding tensors so no spin-rotation constants.
 Leave Link  601 at Wed Nov  3 01:46:10 2010, MaxMem=  786432000 cpu:       3.9
 (Enter /share/apps/G09A02/g09/l9999.exe)
 1\1\GINC-COMPUTE-0-7\SP\ULC-BLYP\6-311+G(3df,2p)\C1H5(2)\WENXINZY\03-N
 ov-2010\0\\#p lc-blyp/6-311+g(3df,2p) nosymm scf=tight\\18 H2+CH3\\0,2
 \C\H,1,2.3635051\H,1,1.0792944,2,90.6898961\H,1,1.0792944,2,90.6898961
 ,3,120.,0\H,1,1.0792944,2,90.6898961,3,-120.,0\H,2,0.7464931,1,180.,3,
 0.,0\\Version=EM64L-G09RevA.02\HF=-40.8744511\S2=0.753905\S2-1=0.\S2A=
 0.750009\RMSD=1.409e-09\Dipole=-0.0000003,0.,-0.0492866\Quadrupole=0.4
 508261,0.4508248,-0.9016509,0.,-0.0000011,0.\PG=C03V [C3(H1H1C1),3SGV(
 H1)]\\@


 THE SOLUTION TO A PROBLEM CHANGES THE PROBLEM.

                                 -- JOHN PEERS
           PAUL DICKSON'S "THE OFFICIAL RULES"
 Job cpu time:  0 days  0 hours  4 minutes 55.2 seconds.
 File lengths (MBytes):  RWF=      9 Int=      0 D2E=      0 Chk=      1 Scr=      1
 Normal termination of Gaussian 09 at Wed Nov  3 01:46:10 2010.
