 Entering Gaussian System, Link 0=/share/apps/G09A02/g09/g09
 Input=./.script12553/Job_H_CH4_8.com
 Output=./.script12553/Job_H_CH4_8.log
 Initial command:
 /share/apps/G09A02/g09/l1.exe /state/partition1/wenxinzy/scratch/Gau-13389.inp -scrdir=/state/partition1/wenxinzy/scratch/
 Default is to use a total of   8 processors:
                                8 via shared-memory
                                1 via Linda
 Entering Link 1 = /share/apps/G09A02/g09/l1.exe PID=     13390.
  
 Copyright (c) 1988,1990,1992,1993,1995,1998,2003,2009, Gaussian, Inc.
                  All Rights Reserved.
  
 This is part of the Gaussian(R) 09 program.  It is based on
 the Gaussian(R) 03 system (copyright 2003, Gaussian, Inc.),
 the Gaussian(R) 98 system (copyright 1998, Gaussian, Inc.),
 the Gaussian(R) 94 system (copyright 1995, Gaussian, Inc.),
 the Gaussian 92(TM) system (copyright 1992, Gaussian, Inc.),
 the Gaussian 90(TM) system (copyright 1990, Gaussian, Inc.),
 the Gaussian 88(TM) system (copyright 1988, Gaussian, Inc.),
 the Gaussian 86(TM) system (copyright 1986, Carnegie Mellon
 University), and the Gaussian 82(TM) system (copyright 1983,
 Carnegie Mellon University). Gaussian is a federally registered
 trademark of Gaussian, Inc.
  
 This software contains proprietary and confidential information,
 including trade secrets, belonging to Gaussian, Inc.
  
 This software is provided under written license and may be
 used, copied, transmitted, or stored only in accord with that
 written license.
  
 The following legend is applicable only to US Government
 contracts under FAR:
  
                    RESTRICTED RIGHTS LEGEND
  
 Use, reproduction and disclosure by the US Government is
 subject to restrictions as set forth in subparagraphs (a)
 and (c) of the Commercial Computer Software - Restricted
 Rights clause in FAR 52.227-19.
  
 Gaussian, Inc.
 340 Quinnipiac St., Bldg. 40, Wallingford CT 06492
  
  
 ---------------------------------------------------------------
 Warning -- This program may not be used in any manner that
 competes with the business of Gaussian, Inc. or will provide
 assistance to any competitor of Gaussian, Inc.  The licensee
 of this program is prohibited from giving any competitor of
 Gaussian, Inc. access to this program.  By using this program,
 the user acknowledges that Gaussian, Inc. is engaged in the
 business of creating and licensing software in the field of
 computational chemistry and represents and warrants to the
 licensee that it is not a competitor of Gaussian, Inc. and that
 it will not use this program in any manner prohibited above.
 ---------------------------------------------------------------
  

 Cite this work as:
 Gaussian 09, Revision A.02,
 M. J. Frisch, G. W. Trucks, H. B. Schlegel, G. E. Scuseria, 
 M. A. Robb, J. R. Cheeseman, G. Scalmani, V. Barone, B. Mennucci, 
 G. A. Petersson, H. Nakatsuji, M. Caricato, X. Li, H. P. Hratchian, 
 A. F. Izmaylov, J. Bloino, G. Zheng, J. L. Sonnenberg, M. Hada, 
 M. Ehara, K. Toyota, R. Fukuda, J. Hasegawa, M. Ishida, T. Nakajima, 
 Y. Honda, O. Kitao, H. Nakai, T. Vreven, J. A. Montgomery, Jr., 
 J. E. Peralta, F. Ogliaro, M. Bearpark, J. J. Heyd, E. Brothers, 
 K. N. Kudin, V. N. Staroverov, R. Kobayashi, J. Normand, 
 K. Raghavachari, A. Rendell, J. C. Burant, S. S. Iyengar, J. Tomasi, 
 M. Cossi, N. Rega, J. M. Millam, M. Klene, J. E. Knox, J. B. Cross, 
 V. Bakken, C. Adamo, J. Jaramillo, R. Gomperts, R. E. Stratmann, 
 O. Yazyev, A. J. Austin, R. Cammi, C. Pomelli, J. W. Ochterski, 
 R. L. Martin, K. Morokuma, V. G. Zakrzewski, G. A. Voth, 
 P. Salvador, J. J. Dannenberg, S. Dapprich, A. D. Daniels, 
 O. Farkas, J. B. Foresman, J. V. Ortiz, J. Cioslowski, 
 and D. J. Fox, Gaussian, Inc., Wallingford CT, 2009.
 
 ******************************************
 Gaussian 09:  EM64L-G09RevA.02 11-Jun-2009
                 3-Nov-2010 
 ******************************************
 %chk=/state/partition1/wenxinzy/scratch/H_CH4_8.chk
 %nproc=8
 Will use up to    8 processors via shared memory.
 %mem=6000mb
 -------------------------------------------
 #p lc-blyp/6-311+g(3df,2p) nosymm scf=tight
 -------------------------------------------
 1/38=1/1;
 2/12=2,15=1,17=6,18=5,40=1/2;
 3/5=4,6=6,7=216,11=2,16=1,25=1,30=1,74=1000402/1,2,3;
 4//1;
 5/5=2,32=2,38=5/2;
 6/7=2,8=2,9=2,10=2,28=1/1;
 99/5=1,9=1/99;
 Leave Link    1 at Wed Nov  3 01:12:11 2010, MaxMem=  786432000 cpu:       0.4
 (Enter /share/apps/G09A02/g09/l101.exe)
 -------
 9 H_CH4
 -------
 Symbolic Z-matrix:
 Charge =  0 Multiplicity = 2
 C
 H1                   C    R1
 H2                   C    R2       H1   A1
 H3                   C    R2       H1   A1       H2    120.     0
 H4                   C    R2       H1   A1       H2   -120.     0
 H5                   H1   R3       C     180.     H2    0.       0
       Variables:
  R1                    1.11841                  
  R2                    1.08928                  
  A1                  108.68582                  
  R3                    1.31967                  
 
 NAtoms=      6 NQM=      6 NQMF=      0 NMic=      0 NMicF=      0 NTot=      6.
                    Isotopes and Nuclear Properties:
 (Nuclear quadrupole moments (NQMom) in fm**2, nuclear magnetic moments (NMagM)
  in nuclear magnetons)

  Atom         1           2           3           4           5           6
 IAtWgt=          12           1           1           1           1           1
 AtmWgt=  12.0000000   1.0078250   1.0078250   1.0078250   1.0078250   1.0078250
 NucSpn=           0           1           1           1           1           1
 AtZEff=   0.0000000   0.0000000   0.0000000   0.0000000   0.0000000   0.0000000
 NQMom=    0.0000000   0.0000000   0.0000000   0.0000000   0.0000000   0.0000000
 NMagM=    0.0000000   2.7928460   2.7928460   2.7928460   2.7928460   2.7928460
 Leave Link  101 at Wed Nov  3 01:12:11 2010, MaxMem=  786432000 cpu:       1.0
 (Enter /share/apps/G09A02/g09/l202.exe)
                          Input orientation:                          
 ---------------------------------------------------------------------
 Center     Atomic      Atomic             Coordinates (Angstroms)
 Number     Number       Type             X           Y           Z
 ---------------------------------------------------------------------
      1          6           0        0.000000    0.000000    0.000000
      2          1           0        0.000000    0.000000    1.118410
      3          1           0        1.031867    0.000000   -0.348983
      4          1           0       -0.515933   -0.893623   -0.348983
      5          1           0       -0.515933    0.893623   -0.348983
      6          1           0        0.000000    0.000000    2.438081
 ---------------------------------------------------------------------
                    Distance matrix (angstroms):
                    1          2          3          4          5
     1  C    0.000000
     2  H    1.118410   0.000000
     3  H    1.089284   1.793876   0.000000
     4  H    1.089284   1.793876   1.787246   0.000000
     5  H    1.089284   1.793876   1.787246   1.787246   0.000000
     6  H    2.438081   1.319671   2.971948   2.971948   2.971948
                    6
     6  H    0.000000
 Symmetry turned off by external request.
 Stoichiometry    CH5(2)
 Framework group  C3V[C3(HHC),3SGV(H)]
 Deg. of freedom     4
 Full point group                 C3V     NOp   6
 Rotational constants (GHZ):    156.9868923     57.0803643     57.0803643
 Leave Link  202 at Wed Nov  3 01:12:11 2010, MaxMem=  786432000 cpu:       0.1
 (Enter /share/apps/G09A02/g09/l301.exe)
 Standard basis: 6-311+G(3df,2p) (5D, 7F)
 Ernie: Thresh=  0.10000D-02 Tol=  0.10000D-05 Strict=F.
 Integral buffers will be    131072 words long.
 Raffenetti 2 integral format.
 Two-electron integral symmetry is turned off.
    84 basis functions,   113 primitive gaussians,    90 cartesian basis functions
     6 alpha electrons        5 beta electrons
       nuclear repulsion energy        15.5940338806 Hartrees.
 IExCor=10402 DFT=T Ex=LC-B+HF Corr=LYP ExCW=0 ScaHFX=  1.000000
 ScaDFX=  1.000000  1.000000  1.000000  1.000000 ScalE2=  1.000000  1.000000
 IRadAn=      0 IRanWt=     -1 IRanGd=            0 ICorTp=0
  HFx wShort=  0.000000 wLong=  0.470000 cFull=  0.000000 cShort=  0.000000 cLong=  1.000000
  DFx wShort=  0.000000 wLong=  0.470000 cFull=  0.000000 cShort=  0.000000 cLong=  1.000000
 NAtoms=    6 NActive=    6 NUniq=    6 SFac= 7.50D-01 NAtFMM=   80 NAOKFM=F Big=F
 Leave Link  301 at Wed Nov  3 01:12:11 2010, MaxMem=  786432000 cpu:       0.7
 (Enter /share/apps/G09A02/g09/l302.exe)
 NPDir=0 NMtPBC=     1 NCelOv=     1 NCel=       1 NClECP=     1 NCelD=      1
         NCelK=      1 NCelE2=     1 NClLst=     1 CellRange=     0.0.
 One-electron integrals computed using PRISM.
 NBasis=    84 RedAO= T  NBF=    84
 NBsUse=    84 1.00D-06 NBFU=    84
 Precomputing XC quadrature grid using
 IXCGrd= 2 IRadAn=           0 IRanWt=          -1 IRanGd=           0 AccXCQ= 1.00D-10.
 NRdTot=     383 NPtTot=       48740 NUsed=       51512 NTot=       51544
 NSgBfM=    90    90    90    90    90 NAtAll=     6     6.
 Leave Link  302 at Wed Nov  3 01:12:11 2010, MaxMem=  786432000 cpu:       2.8
 (Enter /share/apps/G09A02/g09/l303.exe)
 DipDrv:  MaxL=1.
 Leave Link  303 at Wed Nov  3 01:12:12 2010, MaxMem=  786432000 cpu:       0.9
 (Enter /share/apps/G09A02/g09/l401.exe)
 Harris functional with IExCor=10402 diagonalized for initial guess.
 ExpMin= 4.38D-02 ExpMax= 4.56D+03 ExpMxC= 6.82D+02 IAcc=2 IRadAn=         0 AccDes= 0.00D+00
 HarFok:  IExCor=10402 AccDes= 0.00D+00 IRadAn=         0 IDoV= 1
 ScaDFX=  1.000000  1.000000  1.000000  1.000000
 FoFCou: FMM=F IPFlag=           0 FMFlag=      100000 FMFlg1=           0
         NFxFlg=           0 DoJE=T BraDBF=F KetDBF=T FulRan=T
         Omega=  0.000000  0.000000  1.000000  0.000000  0.000000 ICntrl=     500 IOpCl=  0
         NMat0=    1 NMatS0=    1 NMatT0=    0 NMatD0=    1 NMtDS0=    0 NMtDT0=    0
         I1Cent=           4 NGrid=           0.
 Symmetry not used in FoFCou.
 Harris En= -38.5534352482875    
 Initial guess <Sx>= 0.0000 <Sy>= 0.0000 <Sz>= 0.5000 <S**2>= 0.7500 S= 0.5000
 Leave Link  401 at Wed Nov  3 01:12:12 2010, MaxMem=  786432000 cpu:       3.7
 (Enter /share/apps/G09A02/g09/l502.exe)
 UHF open shell SCF:
 Requested convergence on RMS density matrix=1.00D-08 within 128 cycles.
 Requested convergence on MAX density matrix=1.00D-06.
 Requested convergence on             energy=1.00D-06.
 No special actions if energy rises.
 Using DIIS extrapolation, IDIIS=  1040.
 Two-electron integral symmetry not used.
        51445 words used for storage of precomputed grid.
 IEnd=       95163 IEndB=       95163 NGot=   786432000 MDV=   786361668
 LenX=   786361668 LenY=   786353127
 Fock matrices will be formed incrementally for  20 cycles.

 Cycle   1  Pass 1  IDiag  1:
 FoFJK:  IHMeth= 1 ICntrl=     0 DoSepK=T KAlg= 1 I1Cent= 0 FoldK=F
 FoFCou: FMM=F IPFlag=           0 FMFlag=      100000 FMFlg1=           0
         NFxFlg=           0 DoJE=T BraDBF=F KetDBF=F FulRan=T
         Omega=  0.000000  0.000000  1.000000  0.000000  0.000000 ICntrl=     500 IOpCl=  0
         NMat0=    1 NMatS0=    1 NMatT0=    0 NMatD0=    1 NMtDS0=    0 NMtDT0=    0
         I1Cent=           0 NGrid=           0.
 Symmetry not used in FoFCou.
 E= -40.7985506247397    
 DIIS: error= 3.04D-02 at cycle   1 NSaved=   1.
 NSaved= 1 IEnMin= 1 EnMin= -40.7985506247397     IErMin= 1 ErrMin= 3.04D-02
 ErrMax= 3.04D-02 EMaxC= 1.00D-01 BMatC= 2.39D-01 BMatP= 2.39D-01
 IDIUse=3 WtCom= 6.96D-01 WtEn= 3.04D-01
 Coeff-Com:  0.100D+01
 Coeff-En:   0.100D+01
 Coeff:      0.100D+01
 Gap=     0.457 Goal=   None    Shift=    0.000
 Gap=     0.404 Goal=   None    Shift=    0.000
 GapD=    0.404 DampG=2.000 DampE=0.500 DampFc=1.0000 IDamp=-1.
 RMSDP=6.48D-03 MaxDP=2.23D-01              OVMax= 1.66D-01

 Cycle   2  Pass 1  IDiag  1:
 RMSU=  4.54D-03    CP:  7.16D-01
 FoFJK:  IHMeth= 1 ICntrl=     0 DoSepK=T KAlg= 1 I1Cent= 0 FoldK=F
 E= -40.8478740649884     Delta-E=       -0.049323440249 Rises=F Damp=F
 DIIS: error= 2.49D-02 at cycle   2 NSaved=   2.
 NSaved= 2 IEnMin= 2 EnMin= -40.8478740649884     IErMin= 2 ErrMin= 2.49D-02
 ErrMax= 2.49D-02 EMaxC= 1.00D-01 BMatC= 1.05D-01 BMatP= 2.39D-01
 IDIUse=3 WtCom= 7.51D-01 WtEn= 2.49D-01
 Coeff-Com:  0.390D+00 0.610D+00
 Coeff-En:   0.462D-01 0.954D+00
 Coeff:      0.305D+00 0.695D+00
 Gap=     0.475 Goal=   None    Shift=    0.000
 Gap=     0.524 Goal=   None    Shift=    0.000
 RMSDP=1.97D-03 MaxDP=6.17D-02 DE=-4.93D-02 OVMax= 7.05D-02

 Cycle   3  Pass 1  IDiag  1:
 RMSU=  1.53D-03    CP:  6.79D-01  1.11D+00
 FoFJK:  IHMeth= 1 ICntrl=     0 DoSepK=T KAlg= 1 I1Cent= 0 FoldK=F
 E= -40.8737755059357     Delta-E=       -0.025901440947 Rises=F Damp=F
 DIIS: error= 4.58D-03 at cycle   3 NSaved=   3.
 NSaved= 3 IEnMin= 3 EnMin= -40.8737755059357     IErMin= 3 ErrMin= 4.58D-03
 ErrMax= 4.58D-03 EMaxC= 1.00D-01 BMatC= 4.78D-03 BMatP= 1.05D-01
 IDIUse=3 WtCom= 9.54D-01 WtEn= 4.58D-02
 Coeff-Com: -0.990D-01 0.597D-01 0.104D+01
 Coeff-En:   0.000D+00 0.000D+00 0.100D+01
 Coeff:     -0.944D-01 0.570D-01 0.104D+01
 Gap=     0.457 Goal=   None    Shift=    0.000
 Gap=     0.524 Goal=   None    Shift=    0.000
 RMSDP=9.29D-04 MaxDP=3.35D-02 DE=-2.59D-02 OVMax= 3.17D-02

 Cycle   4  Pass 1  IDiag  1:
 RMSU=  4.31D-04    CP:  6.41D-01  1.21D+00  1.16D+00
 FoFJK:  IHMeth= 1 ICntrl=     0 DoSepK=T KAlg= 1 I1Cent= 0 FoldK=F
 E= -40.8755724273844     Delta-E=       -0.001796921449 Rises=F Damp=F
 DIIS: error= 9.79D-04 at cycle   4 NSaved=   4.
 NSaved= 4 IEnMin= 4 EnMin= -40.8755724273844     IErMin= 4 ErrMin= 9.79D-04
 ErrMax= 9.79D-04 EMaxC= 1.00D-01 BMatC= 1.06D-04 BMatP= 4.78D-03
 IDIUse=3 WtCom= 9.90D-01 WtEn= 9.79D-03
 Coeff-Com: -0.744D-02-0.431D-01-0.192D+00 0.124D+01
 Coeff-En:   0.000D+00 0.000D+00 0.000D+00 0.100D+01
 Coeff:     -0.737D-02-0.427D-01-0.190D+00 0.124D+01
 Gap=     0.460 Goal=   None    Shift=    0.000
 Gap=     0.525 Goal=   None    Shift=    0.000
 RMSDP=2.84D-04 MaxDP=9.96D-03 DE=-1.80D-03 OVMax= 1.15D-02

 Cycle   5  Pass 1  IDiag  1:
 RMSU=  3.87D-05    CP:  6.31D-01  1.24D+00  1.23D+00  1.34D+00
 FoFJK:  IHMeth= 1 ICntrl=     0 DoSepK=T KAlg= 1 I1Cent= 0 FoldK=F
 E= -40.8756995697826     Delta-E=       -0.000127142398 Rises=F Damp=F
 DIIS: error= 5.03D-04 at cycle   5 NSaved=   5.
 NSaved= 5 IEnMin= 5 EnMin= -40.8756995697826     IErMin= 5 ErrMin= 5.03D-04
 ErrMax= 5.03D-04 EMaxC= 1.00D-01 BMatC= 8.47D-06 BMatP= 1.06D-04
 IDIUse=3 WtCom= 9.95D-01 WtEn= 5.03D-03
 Coeff-Com:  0.642D-02 0.103D-01 0.140D-01-0.379D+00 0.135D+01
 Coeff-En:   0.000D+00 0.000D+00 0.000D+00 0.000D+00 0.100D+01
 Coeff:      0.639D-02 0.103D-01 0.139D-01-0.377D+00 0.135D+01
 Gap=     0.460 Goal=   None    Shift=    0.000
 Gap=     0.523 Goal=   None    Shift=    0.000
 RMSDP=3.44D-05 MaxDP=1.38D-03 DE=-1.27D-04 OVMax= 3.80D-03

 Cycle   6  Pass 1  IDiag  1:
 RMSU=  9.74D-06    CP:  6.31D-01  1.24D+00  1.23D+00  1.37D+00  1.62D+00
 FoFJK:  IHMeth= 1 ICntrl=     0 DoSepK=T KAlg= 1 I1Cent= 0 FoldK=F
 E= -40.8757102907503     Delta-E=       -0.000010720968 Rises=F Damp=F
 DIIS: error= 1.44D-04 at cycle   6 NSaved=   6.
 NSaved= 6 IEnMin= 6 EnMin= -40.8757102907503     IErMin= 6 ErrMin= 1.44D-04
 ErrMax= 1.44D-04 EMaxC= 1.00D-01 BMatC= 8.28D-07 BMatP= 8.47D-06
 IDIUse=3 WtCom= 9.99D-01 WtEn= 1.44D-03
 Coeff-Com: -0.135D-03 0.292D-02 0.137D-01-0.592D-01-0.158D+00 0.120D+01
 Coeff-En:   0.000D+00 0.000D+00 0.000D+00 0.000D+00 0.000D+00 0.100D+01
 Coeff:     -0.134D-03 0.291D-02 0.136D-01-0.591D-01-0.157D+00 0.120D+01
 Gap=     0.461 Goal=   None    Shift=    0.000
 Gap=     0.523 Goal=   None    Shift=    0.000
 RMSDP=1.11D-05 MaxDP=3.12D-04 DE=-1.07D-05 OVMax= 1.15D-03

 Cycle   7  Pass 1  IDiag  1:
 RMSU=  3.33D-06    CP:  6.31D-01  1.24D+00  1.23D+00  1.37D+00  1.78D+00
                    CP:  1.38D+00
 FoFJK:  IHMeth= 1 ICntrl=     0 DoSepK=T KAlg= 1 I1Cent= 0 FoldK=F
 E= -40.8757112332435     Delta-E=       -0.000000942493 Rises=F Damp=F
 DIIS: error= 4.88D-05 at cycle   7 NSaved=   7.
 NSaved= 7 IEnMin= 7 EnMin= -40.8757112332435     IErMin= 7 ErrMin= 4.88D-05
 ErrMax= 4.88D-05 EMaxC= 1.00D-01 BMatC= 9.32D-08 BMatP= 8.28D-07
 IDIUse=1 WtCom= 1.00D+00 WtEn= 0.00D+00
 Coeff-Com: -0.654D-03-0.119D-02-0.308D-02 0.433D-01-0.869D-01-0.257D+00
 Coeff-Com:  0.131D+01
 Coeff:     -0.654D-03-0.119D-02-0.308D-02 0.433D-01-0.869D-01-0.257D+00
 Coeff:      0.131D+01
 Gap=     0.461 Goal=   None    Shift=    0.000
 Gap=     0.523 Goal=   None    Shift=    0.000
 RMSDP=4.09D-06 MaxDP=8.00D-05 DE=-9.42D-07 OVMax= 3.51D-04

 Cycle   8  Pass 1  IDiag  1:
 RMSU=  8.97D-07    CP:  6.31D-01  1.24D+00  1.23D+00  1.37D+00  1.82D+00
                    CP:  1.53D+00  1.59D+00
 FoFJK:  IHMeth= 1 ICntrl=     0 DoSepK=T KAlg= 1 I1Cent= 0 FoldK=F
 E= -40.8757113275960     Delta-E=       -0.000000094352 Rises=F Damp=F
 DIIS: error= 1.15D-05 at cycle   8 NSaved=   8.
 NSaved= 8 IEnMin= 8 EnMin= -40.8757113275960     IErMin= 8 ErrMin= 1.15D-05
 ErrMax= 1.15D-05 EMaxC= 1.00D-01 BMatC= 7.71D-09 BMatP= 9.32D-08
 IDIUse=1 WtCom= 1.00D+00 WtEn= 0.00D+00
 Coeff-Com:  0.228D-03 0.206D-03 0.314D-03-0.114D-01 0.462D-01 0.545D-02
 Coeff-Com: -0.530D+00 0.149D+01
 Coeff:      0.228D-03 0.206D-03 0.314D-03-0.114D-01 0.462D-01 0.545D-02
 Coeff:     -0.530D+00 0.149D+01
 Gap=     0.460 Goal=   None    Shift=    0.000
 Gap=     0.523 Goal=   None    Shift=    0.000
 RMSDP=1.29D-06 MaxDP=3.08D-05 DE=-9.44D-08 OVMax= 8.72D-05

 Cycle   9  Pass 1  IDiag  1:
 RMSU=  3.11D-07    CP:  6.31D-01  1.24D+00  1.23D+00  1.37D+00  1.82D+00
                    CP:  1.56D+00  1.76D+00  1.70D+00
 FoFJK:  IHMeth= 1 ICntrl=     0 DoSepK=T KAlg= 1 I1Cent= 0 FoldK=F
 E= -40.8757113352198     Delta-E=       -0.000000007624 Rises=F Damp=F
 DIIS: error= 2.14D-06 at cycle   9 NSaved=   9.
 NSaved= 9 IEnMin= 9 EnMin= -40.8757113352198     IErMin= 9 ErrMin= 2.14D-06
 ErrMax= 2.14D-06 EMaxC= 1.00D-01 BMatC= 2.69D-10 BMatP= 7.71D-09
 IDIUse=1 WtCom= 1.00D+00 WtEn= 0.00D+00
 Coeff-Com: -0.388D-04-0.260D-04-0.648D-04 0.196D-02-0.103D-01 0.764D-02
 Coeff-Com:  0.103D+00-0.445D+00 0.134D+01
 Coeff:     -0.388D-04-0.260D-04-0.648D-04 0.196D-02-0.103D-01 0.764D-02
 Coeff:      0.103D+00-0.445D+00 0.134D+01
 Gap=     0.460 Goal=   None    Shift=    0.000
 Gap=     0.523 Goal=   None    Shift=    0.000
 RMSDP=3.04D-07 MaxDP=8.89D-06 DE=-7.62D-09 OVMax= 1.54D-05

 Cycle  10  Pass 1  IDiag  1:
 RMSU=  6.93D-08    CP:  6.31D-01  1.24D+00  1.23D+00  1.37D+00  1.83D+00
                    CP:  1.57D+00  1.76D+00  1.84D+00  1.43D+00
 FoFJK:  IHMeth= 1 ICntrl=     0 DoSepK=T KAlg= 1 I1Cent= 0 FoldK=F
 E= -40.8757113354881     Delta-E=       -0.000000000268 Rises=F Damp=F
 DIIS: error= 4.04D-07 at cycle  10 NSaved=  10.
 NSaved=10 IEnMin=10 EnMin= -40.8757113354881     IErMin=10 ErrMin= 4.04D-07
 ErrMax= 4.04D-07 EMaxC= 1.00D-01 BMatC= 1.90D-11 BMatP= 2.69D-10
 IDIUse=1 WtCom= 1.00D+00 WtEn= 0.00D+00
 Coeff-Com:  0.179D-05 0.228D-05 0.235D-04-0.157D-03 0.108D-02-0.300D-02
 Coeff-Com: -0.176D-02 0.434D-01-0.356D+00 0.132D+01
 Coeff:      0.179D-05 0.228D-05 0.235D-04-0.157D-03 0.108D-02-0.300D-02
 Coeff:     -0.176D-02 0.434D-01-0.356D+00 0.132D+01
 Gap=     0.460 Goal=   None    Shift=    0.000
 Gap=     0.523 Goal=   None    Shift=    0.000
 RMSDP=7.44D-08 MaxDP=2.45D-06 DE=-2.68D-10 OVMax= 2.98D-06

 Cycle  11  Pass 1  IDiag  1:
 RMSU=  1.22D-08    CP:  6.31D-01  1.24D+00  1.23D+00  1.37D+00  1.83D+00
                    CP:  1.57D+00  1.75D+00  1.85D+00  1.51D+00  1.46D+00
 FoFJK:  IHMeth= 1 ICntrl=     0 DoSepK=T KAlg= 1 I1Cent= 0 FoldK=F
 E= -40.8757113355098     Delta-E=       -0.000000000022 Rises=F Damp=F
 DIIS: error= 1.49D-07 at cycle  11 NSaved=  11.
 NSaved=11 IEnMin=11 EnMin= -40.8757113355098     IErMin=11 ErrMin= 1.49D-07
 ErrMax= 1.49D-07 EMaxC= 1.00D-01 BMatC= 2.38D-12 BMatP= 1.90D-11
 IDIUse=1 WtCom= 1.00D+00 WtEn= 0.00D+00
 Coeff-Com:  0.107D-05 0.319D-06-0.652D-05-0.400D-04 0.191D-03 0.973D-03
 Coeff-Com: -0.755D-02 0.180D-01 0.319D-01-0.566D+00 0.152D+01
 Coeff:      0.107D-05 0.319D-06-0.652D-05-0.400D-04 0.191D-03 0.973D-03
 Coeff:     -0.755D-02 0.180D-01 0.319D-01-0.566D+00 0.152D+01
 Gap=     0.460 Goal=   None    Shift=    0.000
 Gap=     0.523 Goal=   None    Shift=    0.000
 RMSDP=2.13D-08 MaxDP=3.25D-07 DE=-2.16D-11 OVMax= 9.04D-07

 Cycle  12  Pass 1  IDiag  1:
 RMSU=  5.19D-09    CP:  6.31D-01  1.24D+00  1.23D+00  1.37D+00  1.83D+00
                    CP:  1.57D+00  1.76D+00  1.85D+00  1.51D+00  1.62D+00
                    CP:  1.72D+00
 FoFJK:  IHMeth= 1 ICntrl=     0 DoSepK=T KAlg= 1 I1Cent= 0 FoldK=F
 E= -40.8757113355124     Delta-E=       -0.000000000003 Rises=F Damp=F
 DIIS: error= 3.08D-08 at cycle  12 NSaved=  12.
 NSaved=12 IEnMin=12 EnMin= -40.8757113355124     IErMin=12 ErrMin= 3.08D-08
 ErrMax= 3.08D-08 EMaxC= 1.00D-01 BMatC= 1.28D-13 BMatP= 2.38D-12
 IDIUse=1 WtCom= 1.00D+00 WtEn= 0.00D+00
 Coeff-Com: -0.247D-07 0.284D-06 0.135D-05 0.138D-05-0.533D-04-0.144D-03
 Coeff-Com:  0.204D-02-0.729D-02 0.136D-01 0.918D-01-0.537D+00 0.144D+01
 Coeff:     -0.247D-07 0.284D-06 0.135D-05 0.138D-05-0.533D-04-0.144D-03
 Coeff:      0.204D-02-0.729D-02 0.136D-01 0.918D-01-0.537D+00 0.144D+01
 Gap=     0.460 Goal=   None    Shift=    0.000
 Gap=     0.523 Goal=   None    Shift=    0.000
 RMSDP=6.94D-09 MaxDP=1.94D-07 DE=-2.60D-12 OVMax= 2.19D-07

 SCF Done:  E(ULC-B+HF-LYP) =  -40.8757113355     A.U. after   12 cycles
             Convg  =    0.6940D-08             -V/T =  2.0044
 <Sx>= 0.0000 <Sy>= 0.0000 <Sz>= 0.5000 <S**2>= 0.7538 S= 0.5019
 <L.S>= 0.000000000000E+00
 KE= 4.069823126594D+01 PE=-1.252790415899D+02 EE= 2.811106510785D+01
 Annihilation of the first spin contaminant:
 S**2 before annihilation     0.7538,   after     0.7500
 Leave Link  502 at Wed Nov  3 01:12:47 2010, MaxMem=  786432000 cpu:     279.3
 (Enter /share/apps/G09A02/g09/l601.exe)
 Copying SCF densities to generalized density rwf, IOpCl= 1 IROHF=0.

 **********************************************************************

            Population analysis using the SCF density.

 **********************************************************************

 Alpha  occ. eigenvalues --  -10.12273  -0.87083  -0.58040  -0.53372  -0.53372
 Alpha  occ. eigenvalues --   -0.39313
 Alpha virt. eigenvalues --    0.06737   0.09312   0.09312   0.10615   0.22180
 Alpha virt. eigenvalues --    0.22180   0.25136   0.28740   0.35275   0.35275
 Alpha virt. eigenvalues --    0.38736   0.41309   0.41309   0.45857   0.62881
 Alpha virt. eigenvalues --    0.62881   0.66591   0.71351   0.72196   0.72196
 Alpha virt. eigenvalues --    0.78601   0.80202   0.80202   0.89507   0.98390
 Alpha virt. eigenvalues --    1.05574   1.05574   1.10000   1.10000   1.12671
 Alpha virt. eigenvalues --    1.26682   1.26682   1.33175   1.40749   1.40749
 Alpha virt. eigenvalues --    1.56718   1.88760   2.06839   2.06839   2.07491
 Alpha virt. eigenvalues --    2.07491   2.16679   2.46412   2.68842   2.78195
 Alpha virt. eigenvalues --    2.78195   2.93209   3.08174   3.10874   3.10874
 Alpha virt. eigenvalues --    3.44053   3.44053   3.47785   3.64847   3.64847
 Alpha virt. eigenvalues --    3.73160   3.86543   3.86543   4.04858   4.17530
 Alpha virt. eigenvalues --    4.29347   4.29347   4.34557   4.34557   4.38467
 Alpha virt. eigenvalues --    4.55492   4.55492   4.60416   5.15037   5.80535
 Alpha virt. eigenvalues --    5.87434   5.87434   7.29422   7.29422   7.89144
 Alpha virt. eigenvalues --    7.89144   7.96079  24.26731
  Beta  occ. eigenvalues --  -10.11929  -0.86106  -0.53348  -0.53144  -0.53144
  Beta virt. eigenvalues --   -0.00820   0.07342   0.09216   0.09216   0.11066
  Beta virt. eigenvalues --    0.22293   0.22293   0.25678   0.29401   0.35461
  Beta virt. eigenvalues --    0.35461   0.40010   0.41274   0.41274   0.50235
  Beta virt. eigenvalues --    0.63583   0.63583   0.68703   0.71506   0.75128
  Beta virt. eigenvalues --    0.75128   0.78612   0.80476   0.80476   0.89869
  Beta virt. eigenvalues --    0.98384   1.06150   1.06150   1.10287   1.10287
  Beta virt. eigenvalues --    1.15885   1.26815   1.26815   1.33506   1.40988
  Beta virt. eigenvalues --    1.40988   1.57450   1.90653   2.07166   2.07166
  Beta virt. eigenvalues --    2.08220   2.08220   2.18193   2.52765   2.74276
  Beta virt. eigenvalues --    2.78530   2.78530   2.98822   3.08317   3.11607
  Beta virt. eigenvalues --    3.11607   3.44455   3.44455   3.48196   3.65086
  Beta virt. eigenvalues --    3.65086   3.75105   4.00413   4.00413   4.05390
  Beta virt. eigenvalues --    4.24982   4.29244   4.29244   4.34615   4.34615
  Beta virt. eigenvalues --    4.42887   4.55592   4.55592   4.60521   5.15390
  Beta virt. eigenvalues --    5.81157   5.87620   5.87620   7.30452   7.30453
  Beta virt. eigenvalues --    7.89758   7.89758   7.97476  24.27199
          Condensed to atoms (all electrons):
              1          2          3          4          5          6
     1  C    5.142701   0.379600   0.403223   0.403224   0.403224  -0.030770
     2  H    0.379600   0.476730  -0.015298  -0.015299  -0.015299  -0.031415
     3  H    0.403223  -0.015298   0.475143  -0.017329  -0.017329   0.001110
     4  H    0.403224  -0.015299  -0.017329   0.475141  -0.017329   0.001110
     5  H    0.403224  -0.015299  -0.017329  -0.017329   0.475141   0.001110
     6  H   -0.030770  -0.031415   0.001110   0.001110   0.001110   1.090077
 Mulliken atomic charges:
              1
     1  C   -0.701202
     2  H    0.220980
     3  H    0.170480
     4  H    0.170483
     5  H    0.170483
     6  H   -0.031223
 Sum of Mulliken atomic charges =   0.00000
 Mulliken charges with hydrogens summed into heavy atoms:
              1
     1  C    0.000000
 Sum of Mulliken charges with hydrogens summed into heavy atoms =   0.00000
          Atomic-Atomic Spin Densities.
              1          2          3          4          5          6
     1  C    0.205302   0.031969  -0.001126  -0.001127  -0.001127  -0.056068
     2  H    0.031969  -0.046358   0.000678   0.000678   0.000678  -0.084287
     3  H   -0.001126   0.000678  -0.003709   0.000286   0.000286   0.002129
     4  H   -0.001127   0.000678   0.000286  -0.003708   0.000286   0.002129
     5  H   -0.001127   0.000678   0.000286   0.000286  -0.003708   0.002129
     6  H   -0.056068  -0.084287   0.002129   0.002129   0.002129   1.057152
 Mulliken atomic spin densities:
              1
     1  C    0.177824
     2  H   -0.096641
     3  H   -0.001456
     4  H   -0.001455
     5  H   -0.001455
     6  H    0.923184
 Sum of Mulliken atomic spin densities =   1.00000
 Electronic spatial extent (au):  <R**2>=             61.3739
 Charge=              0.0000 electrons
 Dipole moment (field-independent basis, Debye):
    X=              0.0000    Y=              0.0000    Z=             -0.4018  Tot=              0.4018
 Quadrupole moment (field-independent basis, Debye-Ang):
   XX=             -9.8110   YY=             -9.8110   ZZ=            -11.2709
   XY=              0.0000   XZ=              0.0000   YZ=              0.0000
 Traceless Quadrupole moment (field-independent basis, Debye-Ang):
   XX=              0.4866   YY=              0.4866   ZZ=             -0.9733
   XY=              0.0000   XZ=              0.0000   YZ=              0.0000
 Octapole moment (field-independent basis, Debye-Ang**2):
  XXX=              0.6999  YYY=              0.0000  ZZZ=            -13.7621  XYY=             -0.6999
  XXY=              0.0000  XXZ=             -4.0333  XZZ=              0.0000  YZZ=              0.0000
  YYZ=             -4.0333  XYZ=              0.0000
 Hexadecapole moment (field-independent basis, Debye-Ang**3):
 XXXX=            -18.2134 YYYY=            -18.2134 ZZZZ=            -82.0351 XXXY=              0.0000
 XXXZ=             -0.4217 YYYX=              0.0000 YYYZ=              0.0000 ZZZX=              0.0000
 ZZZY=              0.0000 XXYY=             -6.0711 XXZZ=            -15.2853 YYZZ=            -15.2853
 XXYZ=              0.0000 YYXZ=              0.4217 ZZXY=              0.0000
 N-N= 1.559403388062D+01 E-N=-1.859896678635D+02  KE= 6.066665322775D+01
                          Isotropic Fermi Contact Couplings
        Atom                 a.u.       MegaHertz       Gauss      10(-4) cm-1
     1  C(13)              0.08989     101.05034      36.05727      33.70677
     2  H(1)              -0.01095     -48.93401     -17.46087     -16.32263
     3  H(1)              -0.00150      -6.68766      -2.38632      -2.23076
     4  H(1)              -0.00150      -6.68766      -2.38632      -2.23076
     5  H(1)              -0.00150      -6.68766      -2.38632      -2.23076
     6  H(1)               0.27519    1230.07918     438.92283     410.31025
 --------------------------------------------------------
       Center         ----  Spin Dipole Couplings  ----
                      3XX-RR        3YY-RR        3ZZ-RR
 --------------------------------------------------------
     1   Atom       -0.123439     -0.123439      0.246878
     2   Atom       -0.076062     -0.076062      0.152124
     3   Atom        0.009273     -0.016527      0.007254
     4   Atom       -0.010077      0.002823      0.007254
     5   Atom       -0.010077      0.002823      0.007254
     6   Atom        0.004532      0.004532     -0.009063
 --------------------------------------------------------
                        XY            XZ            YZ
 --------------------------------------------------------
     1   Atom        0.000000      0.000000      0.000000
     2   Atom        0.000000      0.000000      0.000000
     3   Atom        0.000000     -0.010768      0.000000
     4   Atom        0.011172      0.005384      0.009325
     5   Atom       -0.011172      0.005384     -0.009325
     6   Atom        0.000000      0.000000      0.000000
 --------------------------------------------------------


 ---------------------------------------------------------------------------------
              Anisotropic Spin Dipole Couplings in Principal Axis System
 ---------------------------------------------------------------------------------

       Atom             a.u.   MegaHertz   Gauss  10(-4) cm-1        Axes

              Baa    -0.1234   -16.564    -5.911    -5.525  1.0000  0.0000  0.0000
     1 C(13)  Bbb    -0.1234   -16.564    -5.911    -5.525  0.0000  1.0000  0.0000
              Bcc     0.2469    33.129    11.821    11.051  0.0000  0.0000  1.0000
 
              Baa    -0.0761   -40.583   -14.481   -13.537  1.0000  0.0000  0.0000
     2 H(1)   Bbb    -0.0761   -40.583   -14.481   -13.537  0.0000  1.0000  0.0000
              Bcc     0.1521    81.166    28.962    27.074  0.0000  0.0000  1.0000
 
              Baa    -0.0165    -8.818    -3.146    -2.941  0.0000  1.0000  0.0000
     3 H(1)   Bbb    -0.0026    -1.361    -0.486    -0.454  0.6733  0.0000  0.7394
              Bcc     0.0191    10.179     3.632     3.395  0.7394  0.0000 -0.6733
 
              Baa    -0.0165    -8.818    -3.146    -2.941  0.8660 -0.5000  0.0000
     4 H(1)   Bbb    -0.0026    -1.361    -0.486    -0.454 -0.3366 -0.5831  0.7394
              Bcc     0.0191    10.179     3.632     3.395  0.3697  0.6403  0.6733
 
              Baa    -0.0165    -8.818    -3.146    -2.941  0.8660  0.5000  0.0000
     5 H(1)   Bbb    -0.0026    -1.361    -0.486    -0.454 -0.3366  0.5831  0.7394
              Bcc     0.0191    10.179     3.632     3.395  0.3697 -0.6403  0.6733
 
              Baa    -0.0091    -4.836    -1.725    -1.613  0.0000  0.0000  1.0000
     6 H(1)   Bbb     0.0045     2.418     0.863     0.807  1.0000  0.0000  0.0000
              Bcc     0.0045     2.418     0.863     0.807  0.0000  1.0000  0.0000
 

 ---------------------------------------------------------------------------------

 No NMR shielding tensors so no spin-rotation constants.
 Leave Link  601 at Wed Nov  3 01:12:48 2010, MaxMem=  786432000 cpu:       3.8
 (Enter /share/apps/G09A02/g09/l9999.exe)
 1\1\GINC-COMPUTE-0-7\SP\ULC-BLYP\6-311+G(3df,2p)\C1H5(2)\WENXINZY\03-N
 ov-2010\0\\#p lc-blyp/6-311+g(3df,2p) nosymm scf=tight\\9 H_CH4\\0,2\C
 \H,1,1.1184102\H,1,1.0892835,2,108.6858161\H,1,1.0892835,2,108.6858161
 ,3,120.,0\H,1,1.0892835,2,108.6858161,3,-120.,0\H,2,1.3196709,1,180.,3
 ,0.,0\\Version=EM64L-G09RevA.02\HF=-40.8757113\S2=0.753807\S2-1=0.\S2A
 =0.750001\RMSD=6.940e-09\Dipole=0.0000011,0.,-0.1580794\Quadrupole=0.3
 617974,0.3617995,-0.7235969,0.,0.0000007,0.\PG=C03V [C3(H1H1C1),3SGV(H
 1)]\\@


 Ideas are like rabbits. You get a couple and learn
 how to handle them, and pretty soon you have a dozen.
                                    -- John Steinbeck
 Job cpu time:  0 days  0 hours  4 minutes 54.1 seconds.
 File lengths (MBytes):  RWF=      9 Int=      0 D2E=      0 Chk=      1 Scr=      1
 Normal termination of Gaussian 09 at Wed Nov  3 01:12:48 2010.
