 Entering Gaussian System, Link 0=/share/apps/G09A02/g09/g09
 Input=./.script12553/Job_H2_CH3_3.com
 Output=./.script12553/Job_H2_CH3_3.log
 Initial command:
 /share/apps/G09A02/g09/l1.exe /state/partition1/wenxinzy/scratch/Gau-17856.inp -scrdir=/state/partition1/wenxinzy/scratch/
 Default is to use a total of   8 processors:
                                8 via shared-memory
                                1 via Linda
 Entering Link 1 = /share/apps/G09A02/g09/l1.exe PID=     17857.
  
 Copyright (c) 1988,1990,1992,1993,1995,1998,2003,2009, Gaussian, Inc.
                  All Rights Reserved.
  
 This is part of the Gaussian(R) 09 program.  It is based on
 the Gaussian(R) 03 system (copyright 2003, Gaussian, Inc.),
 the Gaussian(R) 98 system (copyright 1998, Gaussian, Inc.),
 the Gaussian(R) 94 system (copyright 1995, Gaussian, Inc.),
 the Gaussian 92(TM) system (copyright 1992, Gaussian, Inc.),
 the Gaussian 90(TM) system (copyright 1990, Gaussian, Inc.),
 the Gaussian 88(TM) system (copyright 1988, Gaussian, Inc.),
 the Gaussian 86(TM) system (copyright 1986, Carnegie Mellon
 University), and the Gaussian 82(TM) system (copyright 1983,
 Carnegie Mellon University). Gaussian is a federally registered
 trademark of Gaussian, Inc.
  
 This software contains proprietary and confidential information,
 including trade secrets, belonging to Gaussian, Inc.
  
 This software is provided under written license and may be
 used, copied, transmitted, or stored only in accord with that
 written license.
  
 The following legend is applicable only to US Government
 contracts under FAR:
  
                    RESTRICTED RIGHTS LEGEND
  
 Use, reproduction and disclosure by the US Government is
 subject to restrictions as set forth in subparagraphs (a)
 and (c) of the Commercial Computer Software - Restricted
 Rights clause in FAR 52.227-19.
  
 Gaussian, Inc.
 340 Quinnipiac St., Bldg. 40, Wallingford CT 06492
  
  
 ---------------------------------------------------------------
 Warning -- This program may not be used in any manner that
 competes with the business of Gaussian, Inc. or will provide
 assistance to any competitor of Gaussian, Inc.  The licensee
 of this program is prohibited from giving any competitor of
 Gaussian, Inc. access to this program.  By using this program,
 the user acknowledges that Gaussian, Inc. is engaged in the
 business of creating and licensing software in the field of
 computational chemistry and represents and warrants to the
 licensee that it is not a competitor of Gaussian, Inc. and that
 it will not use this program in any manner prohibited above.
 ---------------------------------------------------------------
  

 Cite this work as:
 Gaussian 09, Revision A.02,
 M. J. Frisch, G. W. Trucks, H. B. Schlegel, G. E. Scuseria, 
 M. A. Robb, J. R. Cheeseman, G. Scalmani, V. Barone, B. Mennucci, 
 G. A. Petersson, H. Nakatsuji, M. Caricato, X. Li, H. P. Hratchian, 
 A. F. Izmaylov, J. Bloino, G. Zheng, J. L. Sonnenberg, M. Hada, 
 M. Ehara, K. Toyota, R. Fukuda, J. Hasegawa, M. Ishida, T. Nakajima, 
 Y. Honda, O. Kitao, H. Nakai, T. Vreven, J. A. Montgomery, Jr., 
 J. E. Peralta, F. Ogliaro, M. Bearpark, J. J. Heyd, E. Brothers, 
 K. N. Kudin, V. N. Staroverov, R. Kobayashi, J. Normand, 
 K. Raghavachari, A. Rendell, J. C. Burant, S. S. Iyengar, J. Tomasi, 
 M. Cossi, N. Rega, J. M. Millam, M. Klene, J. E. Knox, J. B. Cross, 
 V. Bakken, C. Adamo, J. Jaramillo, R. Gomperts, R. E. Stratmann, 
 O. Yazyev, A. J. Austin, R. Cammi, C. Pomelli, J. W. Ochterski, 
 R. L. Martin, K. Morokuma, V. G. Zakrzewski, G. A. Voth, 
 P. Salvador, J. J. Dannenberg, S. Dapprich, A. D. Daniels, 
 O. Farkas, J. B. Foresman, J. V. Ortiz, J. Cioslowski, 
 and D. J. Fox, Gaussian, Inc., Wallingford CT, 2009.
 
 ******************************************
 Gaussian 09:  EM64L-G09RevA.02 11-Jun-2009
                 3-Nov-2010 
 ******************************************
 %chk=/state/partition1/wenxinzy/scratch/H2_CH3_3.chk
 %nproc=8
 Will use up to    8 processors via shared memory.
 %mem=6000mb
 -------------------------------------------
 #p lc-blyp/6-311+g(3df,2p) nosymm scf=tight
 -------------------------------------------
 1/38=1/1;
 2/12=2,15=1,17=6,18=5,40=1/2;
 3/5=4,6=6,7=216,11=2,16=1,25=1,30=1,74=1000402/1,2,3;
 4//1;
 5/5=2,32=2,38=5/2;
 6/7=2,8=2,9=2,10=2,28=1/1;
 99/5=1,9=1/99;
 Leave Link    1 at Wed Nov  3 01:36:48 2010, MaxMem=  786432000 cpu:       0.3
 (Enter /share/apps/G09A02/g09/l101.exe)
 --------
 4 H2+CH3
 --------
 Symbolic Z-matrix:
 Charge =  0 Multiplicity = 2
 C
 H1                   C    R1
 H2                   C    R2       H1   A1
 H3                   C    R2       H1   A1       H2    120.     0
 H4                   C    R2       H1   A1       H2   -120.     0
 H5                   H1   R3       C     180.     H2    0.       0
       Variables:
  R1                    1.51804                  
  R2                    1.08318                  
  A1                  100.85088                  
  R3                    0.83335                  
 
 NAtoms=      6 NQM=      6 NQMF=      0 NMic=      0 NMicF=      0 NTot=      6.
                    Isotopes and Nuclear Properties:
 (Nuclear quadrupole moments (NQMom) in fm**2, nuclear magnetic moments (NMagM)
  in nuclear magnetons)

  Atom         1           2           3           4           5           6
 IAtWgt=          12           1           1           1           1           1
 AtmWgt=  12.0000000   1.0078250   1.0078250   1.0078250   1.0078250   1.0078250
 NucSpn=           0           1           1           1           1           1
 AtZEff=   0.0000000   0.0000000   0.0000000   0.0000000   0.0000000   0.0000000
 NQMom=    0.0000000   0.0000000   0.0000000   0.0000000   0.0000000   0.0000000
 NMagM=    0.0000000   2.7928460   2.7928460   2.7928460   2.7928460   2.7928460
 Leave Link  101 at Wed Nov  3 01:36:48 2010, MaxMem=  786432000 cpu:       1.1
 (Enter /share/apps/G09A02/g09/l202.exe)
                          Input orientation:                          
 ---------------------------------------------------------------------
 Center     Atomic      Atomic             Coordinates (Angstroms)
 Number     Number       Type             X           Y           Z
 ---------------------------------------------------------------------
      1          6           0        0.000000    0.000000    0.000000
      2          1           0        0.000000    0.000000    1.518040
      3          1           0        1.063810    0.000000   -0.203912
      4          1           0       -0.531905   -0.921286   -0.203912
      5          1           0       -0.531905    0.921286   -0.203912
      6          1           0        0.000000    0.000000    2.351394
 ---------------------------------------------------------------------
                    Distance matrix (angstroms):
                    1          2          3          4          5
     1  C    0.000000
     2  H    1.518040   0.000000
     3  H    1.083177   2.024058   0.000000
     4  H    1.083177   2.024058   1.842573   0.000000
     5  H    1.083177   2.024058   1.842573   1.842573   0.000000
     6  H    2.351394   0.833354   2.767902   2.767902   2.767902
                    6
     6  H    0.000000
 Symmetry turned off by external request.
 Stoichiometry    CH5(2)
 Framework group  C3V[C3(HHC),3SGV(H)]
 Deg. of freedom     4
 Full point group                 C3V     NOp   6
 Rotational constants (GHZ):    147.7007364     55.5440063     55.5440063
 Leave Link  202 at Wed Nov  3 01:36:48 2010, MaxMem=  786432000 cpu:       0.0
 (Enter /share/apps/G09A02/g09/l301.exe)
 Standard basis: 6-311+G(3df,2p) (5D, 7F)
 Ernie: Thresh=  0.10000D-02 Tol=  0.10000D-05 Strict=F.
 Integral buffers will be    131072 words long.
 Raffenetti 2 integral format.
 Two-electron integral symmetry is turned off.
    84 basis functions,   113 primitive gaussians,    90 cartesian basis functions
     6 alpha electrons        5 beta electrons
       nuclear repulsion energy        15.0900603595 Hartrees.
 IExCor=10402 DFT=T Ex=LC-B+HF Corr=LYP ExCW=0 ScaHFX=  1.000000
 ScaDFX=  1.000000  1.000000  1.000000  1.000000 ScalE2=  1.000000  1.000000
 IRadAn=      0 IRanWt=     -1 IRanGd=            0 ICorTp=0
  HFx wShort=  0.000000 wLong=  0.470000 cFull=  0.000000 cShort=  0.000000 cLong=  1.000000
  DFx wShort=  0.000000 wLong=  0.470000 cFull=  0.000000 cShort=  0.000000 cLong=  1.000000
 NAtoms=    6 NActive=    6 NUniq=    6 SFac= 7.50D-01 NAtFMM=   80 NAOKFM=F Big=F
 Leave Link  301 at Wed Nov  3 01:36:48 2010, MaxMem=  786432000 cpu:       0.6
 (Enter /share/apps/G09A02/g09/l302.exe)
 NPDir=0 NMtPBC=     1 NCelOv=     1 NCel=       1 NClECP=     1 NCelD=      1
         NCelK=      1 NCelE2=     1 NClLst=     1 CellRange=     0.0.
 One-electron integrals computed using PRISM.
 NBasis=    84 RedAO= T  NBF=    84
 NBsUse=    84 1.00D-06 NBFU=    84
 Precomputing XC quadrature grid using
 IXCGrd= 2 IRadAn=           0 IRanWt=          -1 IRanGd=           0 AccXCQ= 1.00D-10.
 NRdTot=     383 NPtTot=       48740 NUsed=       51512 NTot=       51544
 NSgBfM=    90    90    90    90    90 NAtAll=     6     6.
 Leave Link  302 at Wed Nov  3 01:36:49 2010, MaxMem=  786432000 cpu:       2.5
 (Enter /share/apps/G09A02/g09/l303.exe)
 DipDrv:  MaxL=1.
 Leave Link  303 at Wed Nov  3 01:36:49 2010, MaxMem=  786432000 cpu:       0.4
 (Enter /share/apps/G09A02/g09/l401.exe)
 Harris functional with IExCor=10402 diagonalized for initial guess.
 ExpMin= 4.38D-02 ExpMax= 4.56D+03 ExpMxC= 6.82D+02 IAcc=2 IRadAn=         0 AccDes= 0.00D+00
 HarFok:  IExCor=10402 AccDes= 0.00D+00 IRadAn=         0 IDoV= 1
 ScaDFX=  1.000000  1.000000  1.000000  1.000000
 FoFCou: FMM=F IPFlag=           0 FMFlag=      100000 FMFlg1=           0
         NFxFlg=           0 DoJE=T BraDBF=F KetDBF=T FulRan=T
         Omega=  0.000000  0.000000  1.000000  0.000000  0.000000 ICntrl=     500 IOpCl=  0
         NMat0=    1 NMatS0=    1 NMatT0=    0 NMatD0=    1 NMtDS0=    0 NMtDT0=    0
         I1Cent=           4 NGrid=           0.
 Symmetry not used in FoFCou.
 Harris En= -38.5293499812379    
 Initial guess <Sx>= 0.0000 <Sy>= 0.0000 <Sz>= 0.5000 <S**2>= 0.7500 S= 0.5000
 Leave Link  401 at Wed Nov  3 01:36:49 2010, MaxMem=  786432000 cpu:       3.7
 (Enter /share/apps/G09A02/g09/l502.exe)
 UHF open shell SCF:
 Requested convergence on RMS density matrix=1.00D-08 within 128 cycles.
 Requested convergence on MAX density matrix=1.00D-06.
 Requested convergence on             energy=1.00D-06.
 No special actions if energy rises.
 Using DIIS extrapolation, IDIIS=  1040.
 Two-electron integral symmetry not used.
        51445 words used for storage of precomputed grid.
 IEnd=       95163 IEndB=       95163 NGot=   786432000 MDV=   786361668
 LenX=   786361668 LenY=   786353127
 Fock matrices will be formed incrementally for  20 cycles.

 Cycle   1  Pass 1  IDiag  1:
 FoFJK:  IHMeth= 1 ICntrl=     0 DoSepK=T KAlg= 1 I1Cent= 0 FoldK=F
 FoFCou: FMM=F IPFlag=           0 FMFlag=      100000 FMFlg1=           0
         NFxFlg=           0 DoJE=T BraDBF=F KetDBF=F FulRan=T
         Omega=  0.000000  0.000000  1.000000  0.000000  0.000000 ICntrl=     500 IOpCl=  0
         NMat0=    1 NMatS0=    1 NMatT0=    0 NMatD0=    1 NMtDS0=    0 NMtDT0=    0
         I1Cent=           0 NGrid=           0.
 Symmetry not used in FoFCou.
 E= -40.8272147557702    
 DIIS: error= 2.30D-02 at cycle   1 NSaved=   1.
 NSaved= 1 IEnMin= 1 EnMin= -40.8272147557702     IErMin= 1 ErrMin= 2.30D-02
 ErrMax= 2.30D-02 EMaxC= 1.00D-01 BMatC= 1.06D-01 BMatP= 1.06D-01
 IDIUse=3 WtCom= 7.70D-01 WtEn= 2.30D-01
 Coeff-Com:  0.100D+01
 Coeff-En:   0.100D+01
 Coeff:      0.100D+01
 Gap=     0.362 Goal=   None    Shift=    0.000
 Gap=     0.565 Goal=   None    Shift=    0.000
 GapD=    0.362 DampG=1.000 DampE=0.500 DampFc=0.5000 IDamp=-1.
 Damping current iteration by 5.00D-01
 RMSDP=3.34D-03 MaxDP=1.03D-01              OVMax= 1.08D-01

 Cycle   2  Pass 1  IDiag  1:
 RMSU=  1.34D-03    CP:  9.40D-01
 FoFJK:  IHMeth= 1 ICntrl=     0 DoSepK=T KAlg= 1 I1Cent= 0 FoldK=F
 E= -40.8434822381803     Delta-E=       -0.016267482410 Rises=F Damp=T
 DIIS: error= 8.49D-03 at cycle   2 NSaved=   2.
 NSaved= 2 IEnMin= 2 EnMin= -40.8434822381803     IErMin= 2 ErrMin= 8.49D-03
 ErrMax= 8.49D-03 EMaxC= 1.00D-01 BMatC= 1.15D-02 BMatP= 1.06D-01
 IDIUse=3 WtCom= 9.15D-01 WtEn= 8.49D-02
 Coeff-Com: -0.257D+00 0.126D+01
 Coeff-En:   0.000D+00 0.100D+01
 Coeff:     -0.235D+00 0.124D+01
 Gap=     0.401 Goal=   None    Shift=    0.000
 Gap=     0.556 Goal=   None    Shift=    0.000
 RMSDP=2.73D-03 MaxDP=9.66D-02 DE=-1.63D-02 OVMax= 5.25D-02

 Cycle   3  Pass 1  IDiag  1:
 RMSU=  1.21D-03    CP:  8.49D-01  2.39D+00
 FoFJK:  IHMeth= 1 ICntrl=     0 DoSepK=T KAlg= 1 I1Cent= 0 FoldK=F
 E= -40.8604331935215     Delta-E=       -0.016950955341 Rises=F Damp=F
 DIIS: error= 3.03D-03 at cycle   3 NSaved=   3.
 NSaved= 3 IEnMin= 3 EnMin= -40.8604331935215     IErMin= 3 ErrMin= 3.03D-03
 ErrMax= 3.03D-03 EMaxC= 1.00D-01 BMatC= 1.10D-03 BMatP= 1.15D-02
 IDIUse=3 WtCom= 9.70D-01 WtEn= 3.03D-02
 Coeff-Com: -0.982D-03-0.230D+00 0.123D+01
 Coeff-En:   0.000D+00 0.000D+00 0.100D+01
 Coeff:     -0.952D-03-0.223D+00 0.122D+01
 Gap=     0.402 Goal=   None    Shift=    0.000
 Gap=     0.544 Goal=   None    Shift=    0.000
 RMSDP=9.26D-04 MaxDP=2.89D-02 DE=-1.70D-02 OVMax= 2.62D-02

 Cycle   4  Pass 1  IDiag  1:
 RMSU=  2.78D-04    CP:  8.18D-01  2.79D+00  1.38D+00
 FoFJK:  IHMeth= 1 ICntrl=     0 DoSepK=T KAlg= 1 I1Cent= 0 FoldK=F
 E= -40.8613807221728     Delta-E=       -0.000947528651 Rises=F Damp=F
 DIIS: error= 1.05D-03 at cycle   4 NSaved=   4.
 NSaved= 4 IEnMin= 4 EnMin= -40.8613807221728     IErMin= 4 ErrMin= 1.05D-03
 ErrMax= 1.05D-03 EMaxC= 1.00D-01 BMatC= 1.10D-04 BMatP= 1.10D-03
 IDIUse=3 WtCom= 9.90D-01 WtEn= 1.05D-02
 Coeff-Com:  0.824D-02-0.373D-01-0.248D+00 0.128D+01
 Coeff-En:   0.000D+00 0.000D+00 0.000D+00 0.100D+01
 Coeff:      0.815D-02-0.369D-01-0.245D+00 0.127D+01
 Gap=     0.405 Goal=   None    Shift=    0.000
 Gap=     0.548 Goal=   None    Shift=    0.000
 RMSDP=2.90D-04 MaxDP=8.77D-03 DE=-9.48D-04 OVMax= 1.03D-02

 Cycle   5  Pass 1  IDiag  1:
 RMSU=  3.47D-05    CP:  8.09D-01  2.89D+00  1.51D+00  1.43D+00
 FoFJK:  IHMeth= 1 ICntrl=     0 DoSepK=T KAlg= 1 I1Cent= 0 FoldK=F
 E= -40.8614910156793     Delta-E=       -0.000110293506 Rises=F Damp=F
 DIIS: error= 2.87D-04 at cycle   5 NSaved=   5.
 NSaved= 5 IEnMin= 5 EnMin= -40.8614910156793     IErMin= 5 ErrMin= 2.87D-04
 ErrMax= 2.87D-04 EMaxC= 1.00D-01 BMatC= 8.09D-06 BMatP= 1.10D-04
 IDIUse=3 WtCom= 9.97D-01 WtEn= 2.87D-03
 Coeff-Com: -0.147D-02 0.210D-01-0.313D-01-0.214D+00 0.123D+01
 Coeff-En:   0.000D+00 0.000D+00 0.000D+00 0.000D+00 0.100D+01
 Coeff:     -0.146D-02 0.209D-01-0.312D-01-0.214D+00 0.123D+01
 Gap=     0.405 Goal=   None    Shift=    0.000
 Gap=     0.548 Goal=   None    Shift=    0.000
 RMSDP=3.71D-05 MaxDP=8.43D-04 DE=-1.10D-04 OVMax= 2.18D-03

 Cycle   6  Pass 1  IDiag  1:
 RMSU=  1.21D-05    CP:  8.09D-01  2.89D+00  1.52D+00  1.48D+00  1.59D+00
 FoFJK:  IHMeth= 1 ICntrl=     0 DoSepK=T KAlg= 1 I1Cent= 0 FoldK=F
 E= -40.8614989472568     Delta-E=       -0.000007931578 Rises=F Damp=F
 DIIS: error= 1.10D-04 at cycle   6 NSaved=   6.
 NSaved= 6 IEnMin= 6 EnMin= -40.8614989472568     IErMin= 6 ErrMin= 1.10D-04
 ErrMax= 1.10D-04 EMaxC= 1.00D-01 BMatC= 1.07D-06 BMatP= 8.09D-06
 IDIUse=3 WtCom= 9.99D-01 WtEn= 1.10D-03
 Coeff-Com: -0.410D-03 0.112D-02 0.283D-01-0.959D-01-0.198D+00 0.127D+01
 Coeff-En:   0.000D+00 0.000D+00 0.000D+00 0.000D+00 0.000D+00 0.100D+01
 Coeff:     -0.410D-03 0.112D-02 0.282D-01-0.957D-01-0.198D+00 0.126D+01
 Gap=     0.405 Goal=   None    Shift=    0.000
 Gap=     0.548 Goal=   None    Shift=    0.000
 RMSDP=1.50D-05 MaxDP=2.89D-04 DE=-7.93D-06 OVMax= 7.51D-04

 Cycle   7  Pass 1  IDiag  1:
 RMSU=  4.60D-06    CP:  8.09D-01  2.89D+00  1.52D+00  1.48D+00  1.84D+00
                    CP:  1.50D+00
 FoFJK:  IHMeth= 1 ICntrl=     0 DoSepK=T KAlg= 1 I1Cent= 0 FoldK=F
 E= -40.8615000646573     Delta-E=       -0.000001117400 Rises=F Damp=F
 DIIS: error= 3.77D-05 at cycle   7 NSaved=   7.
 NSaved= 7 IEnMin= 7 EnMin= -40.8615000646573     IErMin= 7 ErrMin= 3.77D-05
 ErrMax= 3.77D-05 EMaxC= 1.00D-01 BMatC= 1.20D-07 BMatP= 1.07D-06
 IDIUse=1 WtCom= 1.00D+00 WtEn= 0.00D+00
 Coeff-Com:  0.769D-04-0.223D-02-0.835D-02 0.615D-01-0.385D-01-0.564D+00
 Coeff-Com:  0.155D+01
 Coeff:      0.769D-04-0.223D-02-0.835D-02 0.615D-01-0.385D-01-0.564D+00
 Coeff:      0.155D+01
 Gap=     0.405 Goal=   None    Shift=    0.000
 Gap=     0.548 Goal=   None    Shift=    0.000
 RMSDP=6.06D-06 MaxDP=1.13D-04 DE=-1.12D-06 OVMax= 3.19D-04

 Cycle   8  Pass 1  IDiag  1:
 RMSU=  8.65D-07    CP:  8.08D-01  2.89D+00  1.52D+00  1.48D+00  1.90D+00
                    CP:  1.71D+00  1.76D+00
 FoFJK:  IHMeth= 1 ICntrl=     0 DoSepK=T KAlg= 1 I1Cent= 0 FoldK=F
 E= -40.8615002029848     Delta-E=       -0.000000138327 Rises=F Damp=F
 DIIS: error= 8.02D-06 at cycle   8 NSaved=   8.
 NSaved= 8 IEnMin= 8 EnMin= -40.8615002029848     IErMin= 8 ErrMin= 8.02D-06
 ErrMax= 8.02D-06 EMaxC= 1.00D-01 BMatC= 5.36D-09 BMatP= 1.20D-07
 IDIUse=1 WtCom= 1.00D+00 WtEn= 0.00D+00
 Coeff-Com:  0.801D-04 0.504D-03 0.165D-02-0.154D-01 0.225D-01 0.129D+00
 Coeff-Com: -0.547D+00 0.141D+01
 Coeff:      0.801D-04 0.504D-03 0.165D-02-0.154D-01 0.225D-01 0.129D+00
 Coeff:     -0.547D+00 0.141D+01
 Gap=     0.405 Goal=   None    Shift=    0.000
 Gap=     0.548 Goal=   None    Shift=    0.000
 RMSDP=1.33D-06 MaxDP=3.34D-05 DE=-1.38D-07 OVMax= 7.95D-05

 Cycle   9  Pass 1  IDiag  1:
 RMSU=  3.55D-07    CP:  8.08D-01  2.89D+00  1.52D+00  1.48D+00  1.90D+00
                    CP:  1.73D+00  1.88D+00  1.58D+00
 FoFJK:  IHMeth= 1 ICntrl=     0 DoSepK=T KAlg= 1 I1Cent= 0 FoldK=F
 E= -40.8615002091612     Delta-E=       -0.000000006176 Rises=F Damp=F
 DIIS: error= 2.09D-06 at cycle   9 NSaved=   9.
 NSaved= 9 IEnMin= 9 EnMin= -40.8615002091612     IErMin= 9 ErrMin= 2.09D-06
 ErrMax= 2.09D-06 EMaxC= 1.00D-01 BMatC= 4.67D-10 BMatP= 5.36D-09
 IDIUse=1 WtCom= 1.00D+00 WtEn= 0.00D+00
 Coeff-Com: -0.496D-04-0.142D-03-0.715D-03 0.578D-02-0.988D-02-0.414D-01
 Coeff-Com:  0.208D+00-0.764D+00 0.160D+01
 Coeff:     -0.496D-04-0.142D-03-0.715D-03 0.578D-02-0.988D-02-0.414D-01
 Coeff:      0.208D+00-0.764D+00 0.160D+01
 Gap=     0.405 Goal=   None    Shift=    0.000
 Gap=     0.548 Goal=   None    Shift=    0.000
 RMSDP=5.15D-07 MaxDP=1.65D-05 DE=-6.18D-09 OVMax= 3.04D-05

 Cycle  10  Pass 1  IDiag  1:
 RMSU=  1.20D-07    CP:  8.08D-01  2.89D+00  1.52D+00  1.48D+00  1.90D+00
                    CP:  1.73D+00  1.91D+00  1.73D+00  1.63D+00
 FoFJK:  IHMeth= 1 ICntrl=     0 DoSepK=T KAlg= 1 I1Cent= 0 FoldK=F
 E= -40.8615002098427     Delta-E=       -0.000000000681 Rises=F Damp=F
 DIIS: error= 7.06D-07 at cycle  10 NSaved=  10.
 NSaved=10 IEnMin=10 EnMin= -40.8615002098427     IErMin=10 ErrMin= 7.06D-07
 ErrMax= 7.06D-07 EMaxC= 1.00D-01 BMatC= 3.43D-11 BMatP= 4.67D-10
 IDIUse=1 WtCom= 1.00D+00 WtEn= 0.00D+00
 Coeff-Com:  0.105D-04 0.253D-04 0.177D-03-0.106D-02 0.199D-02 0.518D-02
 Coeff-Com: -0.303D-01 0.138D+00-0.512D+00 0.140D+01
 Coeff:      0.105D-04 0.253D-04 0.177D-03-0.106D-02 0.199D-02 0.518D-02
 Coeff:     -0.303D-01 0.138D+00-0.512D+00 0.140D+01
 Gap=     0.405 Goal=   None    Shift=    0.000
 Gap=     0.548 Goal=   None    Shift=    0.000
 RMSDP=1.33D-07 MaxDP=4.71D-06 DE=-6.81D-10 OVMax= 6.96D-06

 Cycle  11  Pass 1  IDiag  1:
 RMSU=  2.63D-08    CP:  8.08D-01  2.89D+00  1.52D+00  1.48D+00  1.90D+00
                    CP:  1.73D+00  1.92D+00  1.74D+00  1.77D+00  1.53D+00
 FoFJK:  IHMeth= 1 ICntrl=     0 DoSepK=T KAlg= 1 I1Cent= 0 FoldK=F
 E= -40.8615002098963     Delta-E=       -0.000000000054 Rises=F Damp=F
 DIIS: error= 1.89D-07 at cycle  11 NSaved=  11.
 NSaved=11 IEnMin=11 EnMin= -40.8615002098963     IErMin=11 ErrMin= 1.89D-07
 ErrMax= 1.89D-07 EMaxC= 1.00D-01 BMatC= 2.57D-12 BMatP= 3.43D-11
 IDIUse=1 WtCom= 1.00D+00 WtEn= 0.00D+00
 Coeff-Com:  0.796D-06 0.201D-05-0.204D-04-0.457D-04 0.138D-03 0.132D-02
 Coeff-Com: -0.758D-02 0.279D-01-0.951D-02-0.339D+00 0.133D+01
 Coeff:      0.796D-06 0.201D-05-0.204D-04-0.457D-04 0.138D-03 0.132D-02
 Coeff:     -0.758D-02 0.279D-01-0.951D-02-0.339D+00 0.133D+01
 Gap=     0.405 Goal=   None    Shift=    0.000
 Gap=     0.548 Goal=   None    Shift=    0.000
 RMSDP=4.25D-08 MaxDP=1.48D-06 DE=-5.36D-11 OVMax= 1.80D-06

 Cycle  12  Pass 1  IDiag  1:
 RMSU=  4.88D-09    CP:  8.08D-01  2.89D+00  1.52D+00  1.48D+00  1.90D+00
                    CP:  1.73D+00  1.92D+00  1.74D+00  1.79D+00  1.68D+00
                    CP:  1.51D+00
 FoFJK:  IHMeth= 1 ICntrl=     0 DoSepK=T KAlg= 1 I1Cent= 0 FoldK=F
 E= -40.8615002098989     Delta-E=       -0.000000000003 Rises=F Damp=F
 DIIS: error= 5.91D-08 at cycle  12 NSaved=  12.
 NSaved=12 IEnMin=12 EnMin= -40.8615002098989     IErMin=12 ErrMin= 5.91D-08
 ErrMax= 5.91D-08 EMaxC= 1.00D-01 BMatC= 1.36D-13 BMatP= 2.57D-12
 IDIUse=1 WtCom= 1.00D+00 WtEn= 0.00D+00
 Coeff-Com: -0.492D-06-0.760D-06 0.296D-05 0.273D-04-0.609D-04-0.502D-03
 Coeff-Com:  0.300D-02-0.132D-01 0.241D-01 0.487D-01-0.485D+00 0.142D+01
 Coeff:     -0.492D-06-0.760D-06 0.296D-05 0.273D-04-0.609D-04-0.502D-03
 Coeff:      0.300D-02-0.132D-01 0.241D-01 0.487D-01-0.485D+00 0.142D+01
 Gap=     0.405 Goal=   None    Shift=    0.000
 Gap=     0.548 Goal=   None    Shift=    0.000
 RMSDP=6.14D-09 MaxDP=1.33D-07 DE=-2.57D-12 OVMax= 3.99D-07

 SCF Done:  E(ULC-B+HF-LYP) =  -40.8615002099     A.U. after   12 cycles
             Convg  =    0.6144D-08             -V/T =  2.0043
 <Sx>= 0.0000 <Sy>= 0.0000 <Sz>= 0.5000 <S**2>= 0.7627 S= 0.5063
 <L.S>= 0.000000000000E+00
 KE= 4.068603745727D+01 PE=-1.241971709274D+02 EE= 2.755957290074D+01
 Annihilation of the first spin contaminant:
 S**2 before annihilation     0.7627,   after     0.7501
 Leave Link  502 at Wed Nov  3 01:37:25 2010, MaxMem=  786432000 cpu:     281.6
 (Enter /share/apps/G09A02/g09/l601.exe)
 Copying SCF densities to generalized density rwf, IOpCl= 1 IROHF=0.

 **********************************************************************

            Population analysis using the SCF density.

 **********************************************************************

 Alpha  occ. eigenvalues --  -10.14740  -0.86987  -0.59052  -0.55673  -0.55673
 Alpha  occ. eigenvalues --   -0.33690
 Alpha virt. eigenvalues --    0.06855   0.09052   0.09053   0.10285   0.22493
 Alpha virt. eigenvalues --    0.22494   0.22648   0.26427   0.35256   0.35256
 Alpha virt. eigenvalues --    0.40426   0.40426   0.42625   0.46657   0.62831
 Alpha virt. eigenvalues --    0.63063   0.63063   0.69777   0.71758   0.71758
 Alpha virt. eigenvalues --    0.76496   0.84770   0.84770   0.90354   0.95549
 Alpha virt. eigenvalues --    1.08839   1.08839   1.12501   1.12501   1.22572
 Alpha virt. eigenvalues --    1.28557   1.28557   1.37970   1.42879   1.42879
 Alpha virt. eigenvalues --    1.51435   1.85470   1.90342   1.90342   2.12001
 Alpha virt. eigenvalues --    2.12001   2.22774   2.54581   2.60306   2.77872
 Alpha virt. eigenvalues --    2.77872   2.94315   3.05935   3.12646   3.12771
 Alpha virt. eigenvalues --    3.12771   3.35049   3.35049   3.57564   3.68269
 Alpha virt. eigenvalues --    3.68269   3.79629   3.79629   4.01624   4.06257
 Alpha virt. eigenvalues --    4.27033   4.27033   4.35667   4.35667   4.43138
 Alpha virt. eigenvalues --    4.43138   4.51505   4.81740   5.35835   5.64685
 Alpha virt. eigenvalues --    5.75781   5.75781   7.19607   7.19607   7.67225
 Alpha virt. eigenvalues --    7.76212   7.76212  24.21147
  Beta  occ. eigenvalues --  -10.13465  -0.83418  -0.54759  -0.54759  -0.53497
  Beta virt. eigenvalues --    0.01332   0.07766   0.09008   0.09008   0.10081
  Beta virt. eigenvalues --    0.22846   0.22846   0.24101   0.28093   0.35854
  Beta virt. eigenvalues --    0.35854   0.40533   0.40533   0.44175   0.48232
  Beta virt. eigenvalues --    0.64114   0.64114   0.66433   0.70621   0.72743
  Beta virt. eigenvalues --    0.72743   0.76887   0.85627   0.85627   0.91772
  Beta virt. eigenvalues --    0.95520   1.09571   1.09571   1.12982   1.12982
  Beta virt. eigenvalues --    1.24195   1.28773   1.28773   1.39109   1.43835
  Beta virt. eigenvalues --    1.43835   1.53141   1.87419   1.93587   1.93587
  Beta virt. eigenvalues --    2.13079   2.13079   2.26754   2.56721   2.62751
  Beta virt. eigenvalues --    2.79215   2.79215   2.95319   3.06362   3.15360
  Beta virt. eigenvalues --    3.15516   3.15516   3.37153   3.37153   3.62518
  Beta virt. eigenvalues --    3.69408   3.69408   3.83115   3.83115   4.02470
  Beta virt. eigenvalues --    4.07897   4.26840   4.26840   4.36254   4.36254
  Beta virt. eigenvalues --    4.43934   4.43934   4.52953   4.82012   5.36812
  Beta virt. eigenvalues --    5.67284   5.76400   5.76400   7.24599   7.24599
  Beta virt. eigenvalues --    7.73776   7.77968   7.77968  24.22828
          Condensed to atoms (all electrons):
              1          2          3          4          5          6
     1  C    5.336444   0.101468   0.406283   0.406282   0.406282  -0.098670
     2  H    0.101468   0.539993  -0.006594  -0.006593  -0.006593   0.332831
     3  H    0.406283  -0.006594   0.445969  -0.018027  -0.018027  -0.001137
     4  H    0.406282  -0.006593  -0.018027   0.445973  -0.018026  -0.001137
     5  H    0.406282  -0.006593  -0.018027  -0.018026   0.445973  -0.001137
     6  H   -0.098670   0.332831  -0.001137  -0.001137  -0.001137   0.831236
 Mulliken atomic charges:
              1
     1  C   -0.558090
     2  H    0.045489
     3  H    0.191532
     4  H    0.191527
     5  H    0.191527
     6  H   -0.061986
 Sum of Mulliken atomic charges =   0.00000
 Mulliken charges with hydrogens summed into heavy atoms:
              1
     1  C    0.000000
 Sum of Mulliken charges with hydrogens summed into heavy atoms =   0.00000
          Atomic-Atomic Spin Densities.
              1          2          3          4          5          6
     1  C    0.891858   0.025744   0.001500   0.001501   0.001501  -0.121077
     2  H    0.025744  -0.178763   0.002061   0.002062   0.002062   0.005926
     3  H    0.001500   0.002061  -0.022545   0.001894   0.001894   0.000967
     4  H    0.001501   0.002062   0.001894  -0.022545   0.001894   0.000967
     5  H    0.001501   0.002062   0.001894   0.001894  -0.022545   0.000967
     6  H   -0.121077   0.005926   0.000967   0.000967   0.000967   0.494816
 Mulliken atomic spin densities:
              1
     1  C    0.801027
     2  H   -0.140909
     3  H   -0.014228
     4  H   -0.014228
     5  H   -0.014228
     6  H    0.382565
 Sum of Mulliken atomic spin densities =   1.00000
 Electronic spatial extent (au):  <R**2>=             63.5692
 Charge=              0.0000 electrons
 Dipole moment (field-independent basis, Debye):
    X=              0.0000    Y=              0.0000    Z=             -0.6222  Tot=              0.6222
 Quadrupole moment (field-independent basis, Debye-Ang):
   XX=             -9.4770   YY=             -9.4770   ZZ=            -12.0164
   XY=              0.0000   XZ=              0.0000   YZ=              0.0000
 Traceless Quadrupole moment (field-independent basis, Debye-Ang):
   XX=              0.8465   YY=              0.8465   ZZ=             -1.6929
   XY=              0.0000   XZ=              0.0000   YZ=              0.0000
 Octapole moment (field-independent basis, Debye-Ang**2):
  XXX=              0.9063  YYY=              0.0000  ZZZ=            -13.8129  XYY=             -0.9063
  XXY=              0.0000  XXZ=             -4.2503  XZZ=              0.0000  YZZ=              0.0000
  YYZ=             -4.2503  XYZ=              0.0000
 Hexadecapole moment (field-independent basis, Debye-Ang**3):
 XXXX=            -17.4770 YYYY=            -17.4770 ZZZZ=            -73.0691 XXXY=              0.0000
 XXXZ=             -0.2894 YYYX=              0.0000 YYYZ=              0.0000 ZZZX=              0.0000
 ZZZY=              0.0000 XXYY=             -5.8257 XXZZ=            -14.9888 YYZZ=            -14.9888
 XXYZ=              0.0000 YYXZ=              0.2894 ZZXY=              0.0000
 N-N= 1.509006035948D+01 E-N=-1.833066374246D+02  KE= 6.040579024862D+01
                          Isotropic Fermi Contact Couplings
        Atom                 a.u.       MegaHertz       Gauss      10(-4) cm-1
     1  C(13)              0.13598     152.87216      54.54858      50.99266
     2  H(1)              -0.04129    -184.54031     -65.84857     -61.55602
     3  H(1)              -0.00914     -40.84790     -14.57555     -13.62539
     4  H(1)              -0.00914     -40.84822     -14.57566     -13.62550
     5  H(1)              -0.00914     -40.84822     -14.57566     -13.62550
     6  H(1)               0.12262     548.10189     195.57638     182.82711
 --------------------------------------------------------
       Center         ----  Spin Dipole Couplings  ----
                      3XX-RR        3YY-RR        3ZZ-RR
 --------------------------------------------------------
     1   Atom       -0.493113     -0.493113      0.986226
     2   Atom       -0.103781     -0.103781      0.207562
     3   Atom        0.058335     -0.059851      0.001516
     4   Atom       -0.030304      0.028789      0.001516
     5   Atom       -0.030304      0.028789      0.001516
     6   Atom        0.003552      0.003552     -0.007104
 --------------------------------------------------------
                        XY            XZ            YZ
 --------------------------------------------------------
     1   Atom        0.000000      0.000000      0.000000
     2   Atom        0.000000      0.000000      0.000000
     3   Atom        0.000000     -0.017500      0.000000
     4   Atom        0.051176      0.008750      0.015156
     5   Atom       -0.051176      0.008750     -0.015156
     6   Atom        0.000000      0.000000      0.000000
 --------------------------------------------------------


 ---------------------------------------------------------------------------------
              Anisotropic Spin Dipole Couplings in Principal Axis System
 ---------------------------------------------------------------------------------

       Atom             a.u.   MegaHertz   Gauss  10(-4) cm-1        Axes

              Baa    -0.4931   -66.171   -23.611   -22.072  1.0000  0.0000  0.0000
     1 C(13)  Bbb    -0.4931   -66.171   -23.611   -22.072  0.0000  1.0000  0.0000
              Bcc     0.9862   132.342    47.223    44.145  0.0000  0.0000  1.0000
 
              Baa    -0.1038   -55.373   -19.758   -18.470  0.0000  1.0000  0.0000
     2 H(1)   Bbb    -0.1038   -55.373   -19.758   -18.470  1.0000  0.0000  0.0000
              Bcc     0.2076   110.745    39.517    36.941  0.0000  0.0000  1.0000
 
              Baa    -0.0599   -31.933   -11.395   -10.652  0.0000  1.0000  0.0000
     3 H(1)   Bbb    -0.0034    -1.836    -0.655    -0.613  0.2726  0.0000  0.9621
              Bcc     0.0633    33.770    12.050    11.264  0.9621  0.0000 -0.2726
 
              Baa    -0.0599   -31.933   -11.395   -10.652  0.8660 -0.5000  0.0000
     4 H(1)   Bbb    -0.0034    -1.836    -0.655    -0.613 -0.1363 -0.2360  0.9621
              Bcc     0.0633    33.770    12.050    11.264  0.4811  0.8332  0.2726
 
              Baa    -0.0599   -31.933   -11.395   -10.652  0.8660  0.5000  0.0000
     5 H(1)   Bbb    -0.0034    -1.836    -0.655    -0.613 -0.1363  0.2360  0.9621
              Bcc     0.0633    33.770    12.050    11.264 -0.4811  0.8332 -0.2726
 
              Baa    -0.0071    -3.790    -1.352    -1.264  0.0000  0.0000  1.0000
     6 H(1)   Bbb     0.0036     1.895     0.676     0.632  0.0000  1.0000  0.0000
              Bcc     0.0036     1.895     0.676     0.632  1.0000  0.0000  0.0000
 

 ---------------------------------------------------------------------------------

 No NMR shielding tensors so no spin-rotation constants.
 Leave Link  601 at Wed Nov  3 01:37:25 2010, MaxMem=  786432000 cpu:       3.8
 (Enter /share/apps/G09A02/g09/l9999.exe)
 1\1\GINC-COMPUTE-0-7\SP\ULC-BLYP\6-311+G(3df,2p)\C1H5(2)\WENXINZY\03-N
 ov-2010\0\\#p lc-blyp/6-311+g(3df,2p) nosymm scf=tight\\4 H2+CH3\\0,2\
 C\H,1,1.5180403\H,1,1.0831767,2,100.8508808\H,1,1.0831767,2,100.850880
 8,3,120.,0\H,1,1.0831767,2,100.8508808,3,-120.,0\H,2,0.8333541,1,180.,
 3,0.,0\\Version=EM64L-G09RevA.02\HF=-40.8615002\S2=0.762686\S2-1=0.\S2
 A=0.750053\RMSD=6.144e-09\Dipole=-0.0000011,0.,-0.2448028\Quadrupole=0
 .6293276,0.6293266,-1.2586542,0.,-0.000003,0.\PG=C03V [C3(H1H1C1),3SGV
 (H1)]\\@


 FROM WHENCE IT HAPPENS, THAT THEY WHICH TRUST TO BOOKS, DO AS THEY THAT CAST UP MANY LITTLE SUMMS INTO GREATER,
 WITHOUT CONSIDERING WETHER THOSE LITTLE SUMMES WERE RIGHTLY CAST UP OR NOT...
 AND AT LAST FINDING THE ERROUR VISIBLE, AND NOT MISTRUSTING THEIR FIRST GROUNDS,
 KNOW NOT WHICH WAY TO CLEERE THEMSELVES...
 BUT SPEND TIME IN FLUTTERING OVER THEIR BOOKES....
 AS BIRDS THAT ENTERING BY THE CHIMNEY, AND FINDING THEMSELVES INCLOSED IN A CHAMBER,
 FLUTTER AT THE FALSE LIGHT OF A GLASSE WINDOW,
 FOR WANT OF WIT TO CONSIDER WHICH WAY THEY CAME IN....
           LEVIATHAN
 Job cpu time:  0 days  0 hours  4 minutes 55.5 seconds.
 File lengths (MBytes):  RWF=      9 Int=      0 D2E=      0 Chk=      1 Scr=      1
 Normal termination of Gaussian 09 at Wed Nov  3 01:37:25 2010.
