 Entering Gaussian System, Link 0=/share/apps/G09A02/g09/g09
 Input=./.script12553/Job_H2_CH3_16.com
 Output=./.script12553/Job_H2_CH3_16.log
 Initial command:
 /share/apps/G09A02/g09/l1.exe /state/partition1/wenxinzy/scratch/Gau-19189.inp -scrdir=/state/partition1/wenxinzy/scratch/
 Default is to use a total of   8 processors:
                                8 via shared-memory
                                1 via Linda
 Entering Link 1 = /share/apps/G09A02/g09/l1.exe PID=     19190.
  
 Copyright (c) 1988,1990,1992,1993,1995,1998,2003,2009, Gaussian, Inc.
                  All Rights Reserved.
  
 This is part of the Gaussian(R) 09 program.  It is based on
 the Gaussian(R) 03 system (copyright 2003, Gaussian, Inc.),
 the Gaussian(R) 98 system (copyright 1998, Gaussian, Inc.),
 the Gaussian(R) 94 system (copyright 1995, Gaussian, Inc.),
 the Gaussian 92(TM) system (copyright 1992, Gaussian, Inc.),
 the Gaussian 90(TM) system (copyright 1990, Gaussian, Inc.),
 the Gaussian 88(TM) system (copyright 1988, Gaussian, Inc.),
 the Gaussian 86(TM) system (copyright 1986, Carnegie Mellon
 University), and the Gaussian 82(TM) system (copyright 1983,
 Carnegie Mellon University). Gaussian is a federally registered
 trademark of Gaussian, Inc.
  
 This software contains proprietary and confidential information,
 including trade secrets, belonging to Gaussian, Inc.
  
 This software is provided under written license and may be
 used, copied, transmitted, or stored only in accord with that
 written license.
  
 The following legend is applicable only to US Government
 contracts under FAR:
  
                    RESTRICTED RIGHTS LEGEND
  
 Use, reproduction and disclosure by the US Government is
 subject to restrictions as set forth in subparagraphs (a)
 and (c) of the Commercial Computer Software - Restricted
 Rights clause in FAR 52.227-19.
  
 Gaussian, Inc.
 340 Quinnipiac St., Bldg. 40, Wallingford CT 06492
  
  
 ---------------------------------------------------------------
 Warning -- This program may not be used in any manner that
 competes with the business of Gaussian, Inc. or will provide
 assistance to any competitor of Gaussian, Inc.  The licensee
 of this program is prohibited from giving any competitor of
 Gaussian, Inc. access to this program.  By using this program,
 the user acknowledges that Gaussian, Inc. is engaged in the
 business of creating and licensing software in the field of
 computational chemistry and represents and warrants to the
 licensee that it is not a competitor of Gaussian, Inc. and that
 it will not use this program in any manner prohibited above.
 ---------------------------------------------------------------
  

 Cite this work as:
 Gaussian 09, Revision A.02,
 M. J. Frisch, G. W. Trucks, H. B. Schlegel, G. E. Scuseria, 
 M. A. Robb, J. R. Cheeseman, G. Scalmani, V. Barone, B. Mennucci, 
 G. A. Petersson, H. Nakatsuji, M. Caricato, X. Li, H. P. Hratchian, 
 A. F. Izmaylov, J. Bloino, G. Zheng, J. L. Sonnenberg, M. Hada, 
 M. Ehara, K. Toyota, R. Fukuda, J. Hasegawa, M. Ishida, T. Nakajima, 
 Y. Honda, O. Kitao, H. Nakai, T. Vreven, J. A. Montgomery, Jr., 
 J. E. Peralta, F. Ogliaro, M. Bearpark, J. J. Heyd, E. Brothers, 
 K. N. Kudin, V. N. Staroverov, R. Kobayashi, J. Normand, 
 K. Raghavachari, A. Rendell, J. C. Burant, S. S. Iyengar, J. Tomasi, 
 M. Cossi, N. Rega, J. M. Millam, M. Klene, J. E. Knox, J. B. Cross, 
 V. Bakken, C. Adamo, J. Jaramillo, R. Gomperts, R. E. Stratmann, 
 O. Yazyev, A. J. Austin, R. Cammi, C. Pomelli, J. W. Ochterski, 
 R. L. Martin, K. Morokuma, V. G. Zakrzewski, G. A. Voth, 
 P. Salvador, J. J. Dannenberg, S. Dapprich, A. D. Daniels, 
 O. Farkas, J. B. Foresman, J. V. Ortiz, J. Cioslowski, 
 and D. J. Fox, Gaussian, Inc., Wallingford CT, 2009.
 
 ******************************************
 Gaussian 09:  EM64L-G09RevA.02 11-Jun-2009
                 3-Nov-2010 
 ******************************************
 %chk=/state/partition1/wenxinzy/scratch/H2_CH3_16.chk
 %nproc=8
 Will use up to    8 processors via shared memory.
 %mem=6000mb
 -------------------------------------------
 #p lc-blyp/6-311+g(3df,2p) nosymm scf=tight
 -------------------------------------------
 1/38=1/1;
 2/12=2,15=1,17=6,18=5,40=1/2;
 3/5=4,6=6,7=216,11=2,16=1,25=1,30=1,74=1000402/1,2,3;
 4//1;
 5/5=2,32=2,38=5/2;
 6/7=2,8=2,9=2,10=2,28=1/1;
 99/5=1,9=1/99;
 Leave Link    1 at Wed Nov  3 01:44:55 2010, MaxMem=  786432000 cpu:       0.3
 (Enter /share/apps/G09A02/g09/l101.exe)
 ---------
 17 H2+CH3
 ---------
 Symbolic Z-matrix:
 Charge =  0 Multiplicity = 2
 C
 H1                   C    R1
 H2                   C    R2       H1   A1
 H3                   C    R2       H1   A1       H2    120.     0
 H4                   C    R2       H1   A1       H2   -120.     0
 H5                   H1   R3       C     180.     H2    0.       0
       Variables:
  R1                    2.30723                  
  R2                    1.0793                   
  A1                   90.87089                  
  R3                    0.74715                  
 
 NAtoms=      6 NQM=      6 NQMF=      0 NMic=      0 NMicF=      0 NTot=      6.
                    Isotopes and Nuclear Properties:
 (Nuclear quadrupole moments (NQMom) in fm**2, nuclear magnetic moments (NMagM)
  in nuclear magnetons)

  Atom         1           2           3           4           5           6
 IAtWgt=          12           1           1           1           1           1
 AtmWgt=  12.0000000   1.0078250   1.0078250   1.0078250   1.0078250   1.0078250
 NucSpn=           0           1           1           1           1           1
 AtZEff=   0.0000000   0.0000000   0.0000000   0.0000000   0.0000000   0.0000000
 NQMom=    0.0000000   0.0000000   0.0000000   0.0000000   0.0000000   0.0000000
 NMagM=    0.0000000   2.7928460   2.7928460   2.7928460   2.7928460   2.7928460
 Leave Link  101 at Wed Nov  3 01:44:55 2010, MaxMem=  786432000 cpu:       1.0
 (Enter /share/apps/G09A02/g09/l202.exe)
                          Input orientation:                          
 ---------------------------------------------------------------------
 Center     Atomic      Atomic             Coordinates (Angstroms)
 Number     Number       Type             X           Y           Z
 ---------------------------------------------------------------------
      1          6           0        0.000000    0.000000    0.000000
      2          1           0        0.000000    0.000000    2.307228
      3          1           0        1.079174    0.000000   -0.016405
      4          1           0       -0.539587   -0.934592   -0.016405
      5          1           0       -0.539587    0.934592   -0.016405
      6          1           0        0.000000    0.000000    3.054380
 ---------------------------------------------------------------------
                    Distance matrix (angstroms):
                    1          2          3          4          5
     1  C    0.000000
     2  H    2.307228   0.000000
     3  H    1.079298   2.562008   0.000000
     4  H    1.079298   2.562008   1.869184   0.000000
     5  H    1.079298   2.562008   1.869184   1.869184   0.000000
     6  H    3.054380   0.747152   3.254894   3.254894   3.254894
                    6
     6  H    0.000000
 Symmetry turned off by external request.
 Stoichiometry    CH5(2)
 Framework group  C3V[C3(HHC),3SGV(H)]
 Deg. of freedom     4
 Full point group                 C3V     NOp   6
 Rotational constants (GHZ):    143.5251981     34.0407248     34.0407248
 Leave Link  202 at Wed Nov  3 01:44:55 2010, MaxMem=  786432000 cpu:       0.0
 (Enter /share/apps/G09A02/g09/l301.exe)
 Standard basis: 6-311+G(3df,2p) (5D, 7F)
 Ernie: Thresh=  0.10000D-02 Tol=  0.10000D-05 Strict=F.
 Integral buffers will be    131072 words long.
 Raffenetti 2 integral format.
 Two-electron integral symmetry is turned off.
    84 basis functions,   113 primitive gaussians,    90 cartesian basis functions
     6 alpha electrons        5 beta electrons
       nuclear repulsion energy        13.9059605079 Hartrees.
 IExCor=10402 DFT=T Ex=LC-B+HF Corr=LYP ExCW=0 ScaHFX=  1.000000
 ScaDFX=  1.000000  1.000000  1.000000  1.000000 ScalE2=  1.000000  1.000000
 IRadAn=      0 IRanWt=     -1 IRanGd=            0 ICorTp=0
  HFx wShort=  0.000000 wLong=  0.470000 cFull=  0.000000 cShort=  0.000000 cLong=  1.000000
  DFx wShort=  0.000000 wLong=  0.470000 cFull=  0.000000 cShort=  0.000000 cLong=  1.000000
 NAtoms=    6 NActive=    6 NUniq=    6 SFac= 7.50D-01 NAtFMM=   80 NAOKFM=F Big=F
 Leave Link  301 at Wed Nov  3 01:44:56 2010, MaxMem=  786432000 cpu:       0.7
 (Enter /share/apps/G09A02/g09/l302.exe)
 NPDir=0 NMtPBC=     1 NCelOv=     1 NCel=       1 NClECP=     1 NCelD=      1
         NCelK=      1 NCelE2=     1 NClLst=     1 CellRange=     0.0.
 One-electron integrals computed using PRISM.
 NBasis=    84 RedAO= T  NBF=    84
 NBsUse=    84 1.00D-06 NBFU=    84
 Precomputing XC quadrature grid using
 IXCGrd= 2 IRadAn=           0 IRanWt=          -1 IRanGd=           0 AccXCQ= 1.00D-10.
 NRdTot=     383 NPtTot=       48302 NUsed=       51074 NTot=       51106
 NSgBfM=    90    90    90    90    90 NAtAll=     6     6.
 Leave Link  302 at Wed Nov  3 01:44:56 2010, MaxMem=  786432000 cpu:       2.5
 (Enter /share/apps/G09A02/g09/l303.exe)
 DipDrv:  MaxL=1.
 Leave Link  303 at Wed Nov  3 01:44:56 2010, MaxMem=  786432000 cpu:       0.7
 (Enter /share/apps/G09A02/g09/l401.exe)
 Harris functional with IExCor=10402 diagonalized for initial guess.
 ExpMin= 4.38D-02 ExpMax= 4.56D+03 ExpMxC= 6.82D+02 IAcc=2 IRadAn=         0 AccDes= 0.00D+00
 HarFok:  IExCor=10402 AccDes= 0.00D+00 IRadAn=         0 IDoV= 1
 ScaDFX=  1.000000  1.000000  1.000000  1.000000
 FoFCou: FMM=F IPFlag=           0 FMFlag=      100000 FMFlg1=           0
         NFxFlg=           0 DoJE=T BraDBF=F KetDBF=T FulRan=T
         Omega=  0.000000  0.000000  1.000000  0.000000  0.000000 ICntrl=     500 IOpCl=  0
         NMat0=    1 NMatS0=    1 NMatT0=    0 NMatD0=    1 NMtDS0=    0 NMtDT0=    0
         I1Cent=           4 NGrid=           0.
 Symmetry not used in FoFCou.
 Harris En= -38.5340822872219    
 Initial guess <Sx>= 0.0000 <Sy>= 0.0000 <Sz>= 0.5000 <S**2>= 0.7500 S= 0.5000
 Leave Link  401 at Wed Nov  3 01:44:57 2010, MaxMem=  786432000 cpu:       3.7
 (Enter /share/apps/G09A02/g09/l502.exe)
 UHF open shell SCF:
 Requested convergence on RMS density matrix=1.00D-08 within 128 cycles.
 Requested convergence on MAX density matrix=1.00D-06.
 Requested convergence on             energy=1.00D-06.
 No special actions if energy rises.
 Using DIIS extrapolation, IDIIS=  1040.
 Two-electron integral symmetry not used.
        51007 words used for storage of precomputed grid.
 IEnd=       94725 IEndB=       94725 NGot=   786432000 MDV=   786362106
 LenX=   786362106 LenY=   786353565
 Fock matrices will be formed incrementally for  20 cycles.

 Cycle   1  Pass 1  IDiag  1:
 FoFJK:  IHMeth= 1 ICntrl=     0 DoSepK=T KAlg= 1 I1Cent= 0 FoldK=F
 FoFCou: FMM=F IPFlag=           0 FMFlag=      100000 FMFlg1=           0
         NFxFlg=           0 DoJE=T BraDBF=F KetDBF=F FulRan=T
         Omega=  0.000000  0.000000  1.000000  0.000000  0.000000 ICntrl=     500 IOpCl=  0
         NMat0=    1 NMatS0=    1 NMatT0=    0 NMatD0=    1 NMtDS0=    0 NMtDT0=    0
         I1Cent=           0 NGrid=           0.
 Symmetry not used in FoFCou.
 E= -40.8538201547278    
 DIIS: error= 1.89D-02 at cycle   1 NSaved=   1.
 NSaved= 1 IEnMin= 1 EnMin= -40.8538201547278     IErMin= 1 ErrMin= 1.89D-02
 ErrMax= 1.89D-02 EMaxC= 1.00D-01 BMatC= 6.43D-02 BMatP= 6.43D-02
 IDIUse=3 WtCom= 8.11D-01 WtEn= 1.89D-01
 Coeff-Com:  0.100D+01
 Coeff-En:   0.100D+01
 Coeff:      0.100D+01
 Gap=     0.386 Goal=   None    Shift=    0.000
 Gap=     0.616 Goal=   None    Shift=    0.000
 GapD=    0.386 DampG=1.000 DampE=0.500 DampFc=0.5000 IDamp=-1.
 Damping current iteration by 5.00D-01
 RMSDP=1.65D-03 MaxDP=6.60D-02              OVMax= 5.41D-02

 Cycle   2  Pass 1  IDiag  1:
 RMSU=  6.27D-04    CP:  9.79D-01
 FoFJK:  IHMeth= 1 ICntrl=     0 DoSepK=T KAlg= 1 I1Cent= 0 FoldK=F
 E= -40.8631458786209     Delta-E=       -0.009325723893 Rises=F Damp=T
 DIIS: error= 8.45D-03 at cycle   2 NSaved=   2.
 NSaved= 2 IEnMin= 2 EnMin= -40.8631458786209     IErMin= 2 ErrMin= 8.45D-03
 ErrMax= 8.45D-03 EMaxC= 1.00D-01 BMatC= 1.01D-02 BMatP= 6.43D-02
 IDIUse=3 WtCom= 9.15D-01 WtEn= 8.45D-02
 Coeff-Com: -0.414D+00 0.141D+01
 Coeff-En:   0.000D+00 0.100D+01
 Coeff:     -0.379D+00 0.138D+01
 Gap=     0.428 Goal=   None    Shift=    0.000
 Gap=     0.567 Goal=   None    Shift=    0.000
 RMSDP=1.02D-03 MaxDP=2.23D-02 DE=-9.33D-03 OVMax= 4.36D-02

 Cycle   3  Pass 1  IDiag  1:
 RMSU=  5.66D-04    CP:  9.67D-01  2.01D+00
 FoFJK:  IHMeth= 1 ICntrl=     0 DoSepK=T KAlg= 1 I1Cent= 0 FoldK=F
 E= -40.8735406604972     Delta-E=       -0.010394781876 Rises=F Damp=F
 DIIS: error= 2.65D-03 at cycle   3 NSaved=   3.
 NSaved= 3 IEnMin= 3 EnMin= -40.8735406604972     IErMin= 3 ErrMin= 2.65D-03
 ErrMax= 2.65D-03 EMaxC= 1.00D-01 BMatC= 7.47D-04 BMatP= 1.01D-02
 IDIUse=3 WtCom= 9.74D-01 WtEn= 2.65D-02
 Coeff-Com: -0.578D-01-0.856D-01 0.114D+01
 Coeff-En:   0.000D+00 0.000D+00 0.100D+01
 Coeff:     -0.563D-01-0.834D-01 0.114D+01
 Gap=     0.430 Goal=   None    Shift=    0.000
 Gap=     0.572 Goal=   None    Shift=    0.000
 RMSDP=3.32D-04 MaxDP=9.14D-03 DE=-1.04D-02 OVMax= 2.16D-02

 Cycle   4  Pass 1  IDiag  1:
 RMSU=  8.27D-05    CP:  9.62D-01  2.31D+00  1.32D+00
 FoFJK:  IHMeth= 1 ICntrl=     0 DoSepK=T KAlg= 1 I1Cent= 0 FoldK=F
 E= -40.8741036767768     Delta-E=       -0.000563016280 Rises=F Damp=F
 DIIS: error= 1.07D-03 at cycle   4 NSaved=   4.
 NSaved= 4 IEnMin= 4 EnMin= -40.8741036767768     IErMin= 4 ErrMin= 1.07D-03
 ErrMax= 1.07D-03 EMaxC= 1.00D-01 BMatC= 5.79D-05 BMatP= 7.47D-04
 IDIUse=3 WtCom= 9.89D-01 WtEn= 1.07D-02
 Coeff-Com:  0.275D-01-0.447D-01-0.333D+00 0.135D+01
 Coeff-En:   0.000D+00 0.000D+00 0.000D+00 0.100D+01
 Coeff:      0.272D-01-0.442D-01-0.329D+00 0.135D+01
 Gap=     0.432 Goal=   None    Shift=    0.000
 Gap=     0.567 Goal=   None    Shift=    0.000
 RMSDP=1.21D-04 MaxDP=3.67D-03 DE=-5.63D-04 OVMax= 9.31D-03

 Cycle   5  Pass 1  IDiag  1:
 RMSU=  1.71D-05    CP:  9.60D-01  2.39D+00  1.44D+00  1.62D+00
 FoFJK:  IHMeth= 1 ICntrl=     0 DoSepK=T KAlg= 1 I1Cent= 0 FoldK=F
 E= -40.8741669594789     Delta-E=       -0.000063282702 Rises=F Damp=F
 DIIS: error= 2.22D-04 at cycle   5 NSaved=   5.
 NSaved= 5 IEnMin= 5 EnMin= -40.8741669594789     IErMin= 5 ErrMin= 2.22D-04
 ErrMax= 2.22D-04 EMaxC= 1.00D-01 BMatC= 3.99D-06 BMatP= 5.79D-05
 IDIUse=3 WtCom= 9.98D-01 WtEn= 2.22D-03
 Coeff-Com: -0.436D-02 0.192D-01 0.509D-01-0.484D+00 0.142D+01
 Coeff-En:   0.000D+00 0.000D+00 0.000D+00 0.000D+00 0.100D+01
 Coeff:     -0.435D-02 0.191D-01 0.508D-01-0.483D+00 0.142D+01
 Gap=     0.432 Goal=   None    Shift=    0.000
 Gap=     0.567 Goal=   None    Shift=    0.000
 RMSDP=2.51D-05 MaxDP=7.03D-04 DE=-6.33D-05 OVMax= 1.65D-03

 Cycle   6  Pass 1  IDiag  1:
 RMSU=  4.93D-06    CP:  9.60D-01  2.39D+00  1.45D+00  1.79D+00  1.67D+00
 FoFJK:  IHMeth= 1 ICntrl=     0 DoSepK=T KAlg= 1 I1Cent= 0 FoldK=F
 E= -40.8741706767245     Delta-E=       -0.000003717246 Rises=F Damp=F
 DIIS: error= 4.61D-05 at cycle   6 NSaved=   6.
 NSaved= 6 IEnMin= 6 EnMin= -40.8741706767245     IErMin= 6 ErrMin= 4.61D-05
 ErrMax= 4.61D-05 EMaxC= 1.00D-01 BMatC= 2.56D-07 BMatP= 3.99D-06
 IDIUse=1 WtCom= 1.00D+00 WtEn= 0.00D+00
 Coeff-Com: -0.134D-02 0.322D-03 0.999D-02 0.526D-02-0.260D+00 0.125D+01
 Coeff:     -0.134D-02 0.322D-03 0.999D-02 0.526D-02-0.260D+00 0.125D+01
 Gap=     0.432 Goal=   None    Shift=    0.000
 Gap=     0.567 Goal=   None    Shift=    0.000
 RMSDP=5.26D-06 MaxDP=1.01D-04 DE=-3.72D-06 OVMax= 2.37D-04

 Cycle   7  Pass 1  IDiag  1:
 RMSU=  1.79D-06    CP:  9.60D-01  2.39D+00  1.45D+00  1.81D+00  1.81D+00
                    CP:  1.58D+00
 FoFJK:  IHMeth= 1 ICntrl=     0 DoSepK=T KAlg= 1 I1Cent= 0 FoldK=F
 E= -40.8741708991270     Delta-E=       -0.000000222403 Rises=F Damp=F
 DIIS: error= 1.36D-05 at cycle   7 NSaved=   7.
 NSaved= 7 IEnMin= 7 EnMin= -40.8741708991270     IErMin= 7 ErrMin= 1.36D-05
 ErrMax= 1.36D-05 EMaxC= 1.00D-01 BMatC= 2.43D-08 BMatP= 2.56D-07
 IDIUse=1 WtCom= 1.00D+00 WtEn= 0.00D+00
 Coeff-Com:  0.679D-03-0.208D-02-0.645D-02 0.479D-01-0.965D-01-0.254D+00
 Coeff-Com:  0.131D+01
 Coeff:      0.679D-03-0.208D-02-0.645D-02 0.479D-01-0.965D-01-0.254D+00
 Coeff:      0.131D+01
 Gap=     0.432 Goal=   None    Shift=    0.000
 Gap=     0.567 Goal=   None    Shift=    0.000
 RMSDP=2.08D-06 MaxDP=3.92D-05 DE=-2.22D-07 OVMax= 9.42D-05

 Cycle   8  Pass 1  IDiag  1:
 RMSU=  3.50D-07    CP:  9.60D-01  2.39D+00  1.45D+00  1.80D+00  1.83D+00
                    CP:  1.85D+00  1.55D+00
 FoFJK:  IHMeth= 1 ICntrl=     0 DoSepK=T KAlg= 1 I1Cent= 0 FoldK=F
 E= -40.8741709223807     Delta-E=       -0.000000023254 Rises=F Damp=F
 DIIS: error= 2.71D-06 at cycle   8 NSaved=   8.
 NSaved= 8 IEnMin= 8 EnMin= -40.8741709223807     IErMin= 8 ErrMin= 2.71D-06
 ErrMax= 2.71D-06 EMaxC= 1.00D-01 BMatC= 9.61D-10 BMatP= 2.43D-08
 IDIUse=1 WtCom= 1.00D+00 WtEn= 0.00D+00
 Coeff-Com:  0.427D-05 0.293D-03 0.963D-03-0.106D-01 0.357D-01-0.170D-01
 Coeff-Com: -0.276D+00 0.127D+01
 Coeff:      0.427D-05 0.293D-03 0.963D-03-0.106D-01 0.357D-01-0.170D-01
 Coeff:     -0.276D+00 0.127D+01
 Gap=     0.432 Goal=   None    Shift=    0.000
 Gap=     0.567 Goal=   None    Shift=    0.000
 RMSDP=4.01D-07 MaxDP=1.04D-05 DE=-2.33D-08 OVMax= 1.87D-05

 Cycle   9  Pass 1  IDiag  1:
 RMSU=  7.34D-08    CP:  9.60D-01  2.39D+00  1.45D+00  1.80D+00  1.83D+00
                    CP:  1.88D+00  1.67D+00  1.49D+00
 FoFJK:  IHMeth= 1 ICntrl=     0 DoSepK=T KAlg= 1 I1Cent= 0 FoldK=F
 E= -40.8741709231738     Delta-E=       -0.000000000793 Rises=F Damp=F
 DIIS: error= 8.69D-07 at cycle   9 NSaved=   9.
 NSaved= 9 IEnMin= 9 EnMin= -40.8741709231738     IErMin= 9 ErrMin= 8.69D-07
 ErrMax= 8.69D-07 EMaxC= 1.00D-01 BMatC= 5.47D-11 BMatP= 9.61D-10
 IDIUse=1 WtCom= 1.00D+00 WtEn= 0.00D+00
 Coeff-Com: -0.369D-04-0.283D-04-0.183D-03 0.261D-02-0.111D-01 0.176D-01
 Coeff-Com:  0.577D-01-0.473D+00 0.141D+01
 Coeff:     -0.369D-04-0.283D-04-0.183D-03 0.261D-02-0.111D-01 0.176D-01
 Coeff:      0.577D-01-0.473D+00 0.141D+01
 Gap=     0.432 Goal=   None    Shift=    0.000
 Gap=     0.567 Goal=   None    Shift=    0.000
 RMSDP=9.41D-08 MaxDP=2.21D-06 DE=-7.93D-10 OVMax= 6.86D-06

 Cycle  10  Pass 1  IDiag  1:
 RMSU=  3.26D-08    CP:  9.60D-01  2.39D+00  1.45D+00  1.80D+00  1.83D+00
                    CP:  1.88D+00  1.68D+00  1.58D+00  1.64D+00
 FoFJK:  IHMeth= 1 ICntrl=     0 DoSepK=T KAlg= 1 I1Cent= 0 FoldK=F
 E= -40.8741709232392     Delta-E=       -0.000000000065 Rises=F Damp=F
 DIIS: error= 3.93D-07 at cycle  10 NSaved=  10.
 NSaved=10 IEnMin=10 EnMin= -40.8741709232392     IErMin=10 ErrMin= 3.93D-07
 ErrMax= 3.93D-07 EMaxC= 1.00D-01 BMatC= 8.15D-12 BMatP= 5.47D-11
 IDIUse=1 WtCom= 1.00D+00 WtEn= 0.00D+00
 Coeff-Com:  0.269D-04-0.125D-04 0.343D-04-0.683D-03 0.397D-02-0.105D-01
 Coeff-Com: -0.113D-01 0.186D+00-0.903D+00 0.174D+01
 Coeff:      0.269D-04-0.125D-04 0.343D-04-0.683D-03 0.397D-02-0.105D-01
 Coeff:     -0.113D-01 0.186D+00-0.903D+00 0.174D+01
 Gap=     0.432 Goal=   None    Shift=    0.000
 Gap=     0.567 Goal=   None    Shift=    0.000
 RMSDP=4.72D-08 MaxDP=1.23D-06 DE=-6.53D-11 OVMax= 3.05D-06

 Cycle  11  Pass 1  IDiag  1:
 RMSU=  1.03D-08    CP:  9.60D-01  2.39D+00  1.45D+00  1.80D+00  1.83D+00
                    CP:  1.88D+00  1.68D+00  1.59D+00  1.94D+00  1.79D+00
 FoFJK:  IHMeth= 1 ICntrl=     0 DoSepK=T KAlg= 1 I1Cent= 0 FoldK=F
 E= -40.8741709232515     Delta-E=       -0.000000000012 Rises=F Damp=F
 DIIS: error= 9.78D-08 at cycle  11 NSaved=  11.
 NSaved=11 IEnMin=11 EnMin= -40.8741709232515     IErMin=11 ErrMin= 9.78D-08
 ErrMax= 9.78D-08 EMaxC= 1.00D-01 BMatC= 5.22D-13 BMatP= 8.15D-12
 IDIUse=1 WtCom= 1.00D+00 WtEn= 0.00D+00
 Coeff-Com: -0.540D-05 0.898D-05 0.714D-05-0.919D-04 0.837D-04 0.134D-02
 Coeff-Com: -0.469D-02 0.267D-02 0.118D+00-0.511D+00 0.139D+01
 Coeff:     -0.540D-05 0.898D-05 0.714D-05-0.919D-04 0.837D-04 0.134D-02
 Coeff:     -0.469D-02 0.267D-02 0.118D+00-0.511D+00 0.139D+01
 Gap=     0.432 Goal=   None    Shift=    0.000
 Gap=     0.567 Goal=   None    Shift=    0.000
 RMSDP=1.03D-08 MaxDP=3.38D-07 DE=-1.23D-11 OVMax= 6.72D-07

 Cycle  12  Pass 1  IDiag  1:
 RMSU=  1.67D-09    CP:  9.60D-01  2.39D+00  1.45D+00  1.80D+00  1.83D+00
                    CP:  1.88D+00  1.68D+00  1.58D+00  1.97D+00  1.95D+00
                    CP:  1.47D+00
 FoFJK:  IHMeth= 1 ICntrl=     0 DoSepK=T KAlg= 1 I1Cent= 0 FoldK=F
 E= -40.8741709232513     Delta-E=        0.000000000000 Rises=F Damp=F
 DIIS: error= 1.29D-08 at cycle  12 NSaved=  12.
 NSaved=12 IEnMin=11 EnMin= -40.8741709232515     IErMin=12 ErrMin= 1.29D-08
 ErrMax= 1.29D-08 EMaxC= 1.00D-01 BMatC= 1.28D-14 BMatP= 5.22D-13
 IDIUse=1 WtCom= 1.00D+00 WtEn= 0.00D+00
 Coeff-Com:  0.422D-06-0.138D-05-0.988D-06 0.300D-04-0.102D-03-0.888D-04
 Coeff-Com:  0.161D-02-0.651D-02 0.108D-02 0.676D-01-0.365D+00 0.130D+01
 Coeff:      0.422D-06-0.138D-05-0.988D-06 0.300D-04-0.102D-03-0.888D-04
 Coeff:      0.161D-02-0.651D-02 0.108D-02 0.676D-01-0.365D+00 0.130D+01
 Gap=     0.432 Goal=   None    Shift=    0.000
 Gap=     0.567 Goal=   None    Shift=    0.000
 RMSDP=1.46D-09 MaxDP=4.16D-08 DE= 2.20D-13 OVMax= 8.15D-08

 SCF Done:  E(ULC-B+HF-LYP) =  -40.8741709233     A.U. after   12 cycles
             Convg  =    0.1464D-08             -V/T =  2.0046
 <Sx>= 0.0000 <Sy>= 0.0000 <Sz>= 0.5000 <S**2>= 0.7540 S= 0.5020
 <L.S>= 0.000000000000E+00
 KE= 4.068838559411D+01 PE=-1.218704681296D+02 EE= 2.640195110437D+01
 Annihilation of the first spin contaminant:
 S**2 before annihilation     0.7540,   after     0.7500
 Leave Link  502 at Wed Nov  3 01:45:32 2010, MaxMem=  786432000 cpu:     281.9
 (Enter /share/apps/G09A02/g09/l601.exe)
 Copying SCF densities to generalized density rwf, IOpCl= 1 IROHF=0.

 **********************************************************************

            Population analysis using the SCF density.

 **********************************************************************

 Alpha  occ. eigenvalues --  -10.14718  -0.85632  -0.56599  -0.55980  -0.55980
 Alpha  occ. eigenvalues --   -0.36266
 Alpha virt. eigenvalues --    0.06960   0.09100   0.09100   0.11965   0.18125
 Alpha virt. eigenvalues --    0.23296   0.23296   0.24884   0.37586   0.37586
 Alpha virt. eigenvalues --    0.39045   0.40254   0.40254   0.49631   0.59324
 Alpha virt. eigenvalues --    0.63167   0.63167   0.67166   0.67166   0.68584
 Alpha virt. eigenvalues --    0.76444   0.80295   0.83866   0.83866   0.94677
 Alpha virt. eigenvalues --    1.03523   1.03523   1.11457   1.16213   1.16213
 Alpha virt. eigenvalues --    1.25696   1.25696   1.36975   1.48888   1.48888
 Alpha virt. eigenvalues --    1.52285   1.65248   1.78702   1.78702   2.15043
 Alpha virt. eigenvalues --    2.15777   2.15777   2.50365   2.54686   2.70676
 Alpha virt. eigenvalues --    2.79934   2.79934   2.88687   3.05533   3.13484
 Alpha virt. eigenvalues --    3.13484   3.16402   3.21265   3.21265   3.60798
 Alpha virt. eigenvalues --    3.60798   3.72779   3.72779   3.98936   4.04459
 Alpha virt. eigenvalues --    4.27691   4.27691   4.35834   4.35834   4.42056
 Alpha virt. eigenvalues --    4.42056   4.53510   4.96368   5.36056   5.73809
 Alpha virt. eigenvalues --    5.73809   5.82929   7.15239   7.15240   7.32749
 Alpha virt. eigenvalues --    7.73628   7.73629  24.22801
  Beta  occ. eigenvalues --  -10.13292  -0.81060  -0.55651  -0.54921  -0.54921
  Beta virt. eigenvalues --    0.01738   0.07157   0.08984   0.08984   0.12714
  Beta virt. eigenvalues --    0.20197   0.23548   0.23548   0.25990   0.38720
  Beta virt. eigenvalues --    0.38720   0.40033   0.40254   0.40255   0.51083
  Beta virt. eigenvalues --    0.60633   0.63602   0.63602   0.67843   0.67843
  Beta virt. eigenvalues --    0.69931   0.78154   0.81712   0.84004   0.84004
  Beta virt. eigenvalues --    0.94639   1.04120   1.04120   1.12073   1.16260
  Beta virt. eigenvalues --    1.16260   1.25742   1.25742   1.38793   1.49432
  Beta virt. eigenvalues --    1.49432   1.53843   1.65426   1.83508   1.83508
  Beta virt. eigenvalues --    2.16798   2.16798   2.18614   2.50959   2.54645
  Beta virt. eigenvalues --    2.71307   2.81373   2.81374   2.93971   3.05933
  Beta virt. eigenvalues --    3.16469   3.16469   3.20893   3.24436   3.24436
  Beta virt. eigenvalues --    3.61231   3.61231   3.73663   3.73663   3.99362
  Beta virt. eigenvalues --    4.04817   4.27331   4.27331   4.36584   4.36584
  Beta virt. eigenvalues --    4.42284   4.42284   4.54259   4.96534   5.36987
  Beta virt. eigenvalues --    5.74407   5.74407   5.83324   7.21567   7.21569
  Beta virt. eigenvalues --    7.40771   7.75255   7.75255  24.24676
          Condensed to atoms (all electrons):
              1          2          3          4          5          6
     1  C    5.414897  -0.013874   0.402397   0.402397   0.402397  -0.019960
     2  H   -0.013874   0.574460  -0.001160  -0.001160  -0.001160   0.427738
     3  H    0.402397  -0.001160   0.439202  -0.019564  -0.019564  -0.000383
     4  H    0.402397  -0.001160  -0.019564   0.439200  -0.019562  -0.000383
     5  H    0.402397  -0.001160  -0.019564  -0.019562   0.439200  -0.000383
     6  H   -0.019960   0.427738  -0.000383  -0.000383  -0.000383   0.617488
 Mulliken atomic charges:
              1
     1  C   -0.588254
     2  H    0.015155
     3  H    0.199071
     4  H    0.199072
     5  H    0.199072
     6  H   -0.024116
 Sum of Mulliken atomic charges =   0.00000
 Mulliken charges with hydrogens summed into heavy atoms:
              1
     1  C    0.000000
 Sum of Mulliken charges with hydrogens summed into heavy atoms =   0.00000
          Atomic-Atomic Spin Densities.
              1          2          3          4          5          6
     1  C    1.069841  -0.010124   0.004528   0.004529   0.004529  -0.018807
     2  H   -0.010124  -0.026824   0.000023   0.000023   0.000023   0.008403
     3  H    0.004528   0.000023  -0.033748   0.002792   0.002792  -0.000130
     4  H    0.004529   0.000023   0.002792  -0.033748   0.002792  -0.000130
     5  H    0.004529   0.000023   0.002792   0.002792  -0.033748  -0.000130
     6  H   -0.018807   0.008403  -0.000130  -0.000130  -0.000130   0.056006
 Mulliken atomic spin densities:
              1
     1  C    1.054495
     2  H   -0.028477
     3  H   -0.023743
     4  H   -0.023743
     5  H   -0.023743
     6  H    0.045211
 Sum of Mulliken atomic spin densities =   1.00000
 Electronic spatial extent (au):  <R**2>=             87.2056
 Charge=              0.0000 electrons
 Dipole moment (field-independent basis, Debye):
    X=              0.0000    Y=              0.0000    Z=             -0.1377  Tot=              0.1377
 Quadrupole moment (field-independent basis, Debye-Ang):
   XX=             -9.4232   YY=             -9.4232   ZZ=            -11.2833
   XY=              0.0000   XZ=              0.0000   YZ=              0.0000
 Traceless Quadrupole moment (field-independent basis, Debye-Ang):
   XX=              0.6200   YY=              0.6200   ZZ=             -1.2400
   XY=              0.0000   XZ=              0.0000   YZ=              0.0000
 Octapole moment (field-independent basis, Debye-Ang**2):
  XXX=              0.9875  YYY=              0.0000  ZZZ=            -14.7224  XYY=             -0.9875
  XXY=              0.0000  XXZ=             -5.8079  XZZ=              0.0000  YZZ=              0.0000
  YYZ=             -5.8079  XYZ=              0.0000
 Hexadecapole moment (field-independent basis, Debye-Ang**3):
 XXXX=            -17.4856 YYYY=            -17.4856 ZZZZ=            -91.8304 XXXY=              0.0000
 XXXZ=             -0.0260 YYYX=              0.0000 YYYZ=              0.0000 ZZZX=              0.0000
 ZZZY=              0.0000 XXYY=             -5.8285 XXZZ=            -21.6730 YYZZ=            -21.6730
 XXYZ=              0.0000 YYXZ=              0.0260 ZZXY=              0.0000
 N-N= 1.390596050791D+01 E-N=-1.796562660933D+02  KE= 6.041522424703D+01
                          Isotropic Fermi Contact Couplings
        Atom                 a.u.       MegaHertz       Gauss      10(-4) cm-1
     1  C(13)              0.03024      34.00116      12.13246      11.34157
     2  H(1)              -0.00433     -19.36981      -6.91163      -6.46107
     3  H(1)              -0.01318     -58.90315     -21.01811     -19.64798
     4  H(1)              -0.01318     -58.90357     -21.01826     -19.64812
     5  H(1)              -0.01318     -58.90357     -21.01826     -19.64812
     6  H(1)               0.01676      74.91877      26.73288      24.99021
 --------------------------------------------------------
       Center         ----  Spin Dipole Couplings  ----
                      3XX-RR        3YY-RR        3ZZ-RR
 --------------------------------------------------------
     1   Atom       -0.594720     -0.594721      1.189441
     2   Atom       -0.024096     -0.024096      0.048192
     3   Atom        0.074784     -0.075196      0.000412
     4   Atom       -0.037701      0.037289      0.000412
     5   Atom       -0.037701      0.037289      0.000412
     6   Atom       -0.004815     -0.004815      0.009631
 --------------------------------------------------------
                        XY            XZ            YZ
 --------------------------------------------------------
     1   Atom        0.000000      0.000000      0.000000
     2   Atom        0.000000      0.000000      0.000000
     3   Atom        0.000000     -0.001841      0.000000
     4   Atom        0.064944      0.000921      0.001594
     5   Atom       -0.064944      0.000921     -0.001594
     6   Atom        0.000000      0.000000      0.000000
 --------------------------------------------------------


 ---------------------------------------------------------------------------------
              Anisotropic Spin Dipole Couplings in Principal Axis System
 ---------------------------------------------------------------------------------

       Atom             a.u.   MegaHertz   Gauss  10(-4) cm-1        Axes

              Baa    -0.5947   -79.806   -28.477   -26.620  0.0000  1.0000  0.0000
     1 C(13)  Bbb    -0.5947   -79.806   -28.477   -26.620  1.0000  0.0000  0.0000
              Bcc     1.1894   159.612    56.953    53.241  0.0000  0.0000  1.0000
 
              Baa    -0.0241   -12.856    -4.587    -4.288  1.0000  0.0000  0.0000
     2 H(1)   Bbb    -0.0241   -12.856    -4.587    -4.288  0.0000  1.0000  0.0000
              Bcc     0.0482    25.713     9.175     8.577  0.0000  0.0000  1.0000
 
              Baa    -0.0752   -40.121   -14.316   -13.383  0.0000  1.0000  0.0000
     3 H(1)   Bbb     0.0004     0.195     0.070     0.065  0.0247  0.0000  0.9997
              Bcc     0.0748    39.926    14.247    13.318  0.9997  0.0000 -0.0247
 
              Baa    -0.0752   -40.121   -14.316   -13.383  0.8660 -0.5000  0.0000
     4 H(1)   Bbb     0.0004     0.195     0.070     0.065 -0.0124 -0.0214  0.9997
              Bcc     0.0748    39.926    14.247    13.318  0.4998  0.8658  0.0247
 
              Baa    -0.0752   -40.121   -14.316   -13.383  0.8660  0.5000  0.0000
     5 H(1)   Bbb     0.0004     0.195     0.070     0.065 -0.0124  0.0214  0.9997
              Bcc     0.0748    39.926    14.247    13.318 -0.4998  0.8658 -0.0247
 
              Baa    -0.0048    -2.569    -0.917    -0.857  1.0000  0.0000  0.0000
     6 H(1)   Bbb    -0.0048    -2.569    -0.917    -0.857  0.0000  1.0000  0.0000
              Bcc     0.0096     5.139     1.834     1.714  0.0000  0.0000  1.0000
 

 ---------------------------------------------------------------------------------

 No NMR shielding tensors so no spin-rotation constants.
 Leave Link  601 at Wed Nov  3 01:45:32 2010, MaxMem=  786432000 cpu:       3.9
 (Enter /share/apps/G09A02/g09/l9999.exe)
 1\1\GINC-COMPUTE-0-7\SP\ULC-BLYP\6-311+G(3df,2p)\C1H5(2)\WENXINZY\03-N
 ov-2010\0\\#p lc-blyp/6-311+g(3df,2p) nosymm scf=tight\\17 H2+CH3\\0,2
 \C\H,1,2.3072285\H,1,1.0792983,2,90.870894\H,1,1.0792983,2,90.870894,3
 ,120.,0\H,1,1.0792983,2,90.870894,3,-120.,0\H,2,0.7471519,1,180.,3,0.,
 0\\Version=EM64L-G09RevA.02\HF=-40.8741709\S2=0.753992\S2-1=0.\S2A=0.7
 5001\RMSD=1.464e-09\Dipole=-0.0000007,0.,-0.0541723\Quadrupole=0.46095
 97,0.4609591,-0.9219188,0.,-0.0000016,0.\PG=C03V [C3(H1H1C1),3SGV(H1)]
 \\@


 ACTORS ARE SO FORTUNATE.  THEY CAN CHOOSE WHETHER
 THEY WILL APPEAR IN A TRAGEDY OR IN COMEDY,
 WHETHER THEY WILL SUFFER OF MAKE MERRY,
 LAUGH OR SHED TEARS.  BUT IN REAL LIFE IT IS DIFFERENT.
 MOST MEN AND WOMEN ARE FORCED TO PERFORM
 PARTS FOR WHICH THEY HAVE NO QUALIFICATIONS.
 THE WORLD IS A STAGE, BUT THE PLAY IS BADLY CAST.

                                   -- OSCAR WILDE
 Job cpu time:  0 days  0 hours  4 minutes 55.8 seconds.
 File lengths (MBytes):  RWF=      9 Int=      0 D2E=      0 Chk=      1 Scr=      1
 Normal termination of Gaussian 09 at Wed Nov  3 01:45:32 2010.
