 Entering Gaussian System, Link 0=/share/apps/G09A02/g09/g09
 Input=./.script12553/Job_H_CH4_19.com
 Output=./.script12553/Job_H_CH4_19.log
 Initial command:
 /share/apps/G09A02/g09/l1.exe /state/partition1/wenxinzy/scratch/Gau-14512.inp -scrdir=/state/partition1/wenxinzy/scratch/
 Default is to use a total of   8 processors:
                                8 via shared-memory
                                1 via Linda
 Entering Link 1 = /share/apps/G09A02/g09/l1.exe PID=     14513.
  
 Copyright (c) 1988,1990,1992,1993,1995,1998,2003,2009, Gaussian, Inc.
                  All Rights Reserved.
  
 This is part of the Gaussian(R) 09 program.  It is based on
 the Gaussian(R) 03 system (copyright 2003, Gaussian, Inc.),
 the Gaussian(R) 98 system (copyright 1998, Gaussian, Inc.),
 the Gaussian(R) 94 system (copyright 1995, Gaussian, Inc.),
 the Gaussian 92(TM) system (copyright 1992, Gaussian, Inc.),
 the Gaussian 90(TM) system (copyright 1990, Gaussian, Inc.),
 the Gaussian 88(TM) system (copyright 1988, Gaussian, Inc.),
 the Gaussian 86(TM) system (copyright 1986, Carnegie Mellon
 University), and the Gaussian 82(TM) system (copyright 1983,
 Carnegie Mellon University). Gaussian is a federally registered
 trademark of Gaussian, Inc.
  
 This software contains proprietary and confidential information,
 including trade secrets, belonging to Gaussian, Inc.
  
 This software is provided under written license and may be
 used, copied, transmitted, or stored only in accord with that
 written license.
  
 The following legend is applicable only to US Government
 contracts under FAR:
  
                    RESTRICTED RIGHTS LEGEND
  
 Use, reproduction and disclosure by the US Government is
 subject to restrictions as set forth in subparagraphs (a)
 and (c) of the Commercial Computer Software - Restricted
 Rights clause in FAR 52.227-19.
  
 Gaussian, Inc.
 340 Quinnipiac St., Bldg. 40, Wallingford CT 06492
  
  
 ---------------------------------------------------------------
 Warning -- This program may not be used in any manner that
 competes with the business of Gaussian, Inc. or will provide
 assistance to any competitor of Gaussian, Inc.  The licensee
 of this program is prohibited from giving any competitor of
 Gaussian, Inc. access to this program.  By using this program,
 the user acknowledges that Gaussian, Inc. is engaged in the
 business of creating and licensing software in the field of
 computational chemistry and represents and warrants to the
 licensee that it is not a competitor of Gaussian, Inc. and that
 it will not use this program in any manner prohibited above.
 ---------------------------------------------------------------
  

 Cite this work as:
 Gaussian 09, Revision A.02,
 M. J. Frisch, G. W. Trucks, H. B. Schlegel, G. E. Scuseria, 
 M. A. Robb, J. R. Cheeseman, G. Scalmani, V. Barone, B. Mennucci, 
 G. A. Petersson, H. Nakatsuji, M. Caricato, X. Li, H. P. Hratchian, 
 A. F. Izmaylov, J. Bloino, G. Zheng, J. L. Sonnenberg, M. Hada, 
 M. Ehara, K. Toyota, R. Fukuda, J. Hasegawa, M. Ishida, T. Nakajima, 
 Y. Honda, O. Kitao, H. Nakai, T. Vreven, J. A. Montgomery, Jr., 
 J. E. Peralta, F. Ogliaro, M. Bearpark, J. J. Heyd, E. Brothers, 
 K. N. Kudin, V. N. Staroverov, R. Kobayashi, J. Normand, 
 K. Raghavachari, A. Rendell, J. C. Burant, S. S. Iyengar, J. Tomasi, 
 M. Cossi, N. Rega, J. M. Millam, M. Klene, J. E. Knox, J. B. Cross, 
 V. Bakken, C. Adamo, J. Jaramillo, R. Gomperts, R. E. Stratmann, 
 O. Yazyev, A. J. Austin, R. Cammi, C. Pomelli, J. W. Ochterski, 
 R. L. Martin, K. Morokuma, V. G. Zakrzewski, G. A. Voth, 
 P. Salvador, J. J. Dannenberg, S. Dapprich, A. D. Daniels, 
 O. Farkas, J. B. Foresman, J. V. Ortiz, J. Cioslowski, 
 and D. J. Fox, Gaussian, Inc., Wallingford CT, 2009.
 
 ******************************************
 Gaussian 09:  EM64L-G09RevA.02 11-Jun-2009
                 3-Nov-2010 
 ******************************************
 %chk=/state/partition1/wenxinzy/scratch/H_CH4_19.chk
 %nproc=8
 Will use up to    8 processors via shared memory.
 %mem=6000mb
 -------------------------------------------
 #p lc-blyp/6-311+g(3df,2p) nosymm scf=tight
 -------------------------------------------
 1/38=1/1;
 2/12=2,15=1,17=6,18=5,40=1/2;
 3/5=4,6=6,7=216,11=2,16=1,25=1,30=1,74=1000402/1,2,3;
 4//1;
 5/5=2,32=2,38=5/2;
 6/7=2,8=2,9=2,10=2,28=1/1;
 99/5=1,9=1/99;
 Leave Link    1 at Wed Nov  3 01:18:47 2010, MaxMem=  786432000 cpu:       0.4
 (Enter /share/apps/G09A02/g09/l101.exe)
 --------
 20 H_CH4
 --------
 Symbolic Z-matrix:
 Charge =  0 Multiplicity = 2
 C
 H1                   C    R1
 H2                   C    R2       H1   A1
 H3                   C    R2       H1   A1       H2    120.     0
 H4                   C    R2       H1   A1       H2   -120.     0
 H5                   H1   R3       C     180.     H2    0.       0
       Variables:
  R1                    1.09096                  
  R2                    1.08946                  
  A1                  109.4402                   
  R3                    1.96743                  
 
 NAtoms=      6 NQM=      6 NQMF=      0 NMic=      0 NMicF=      0 NTot=      6.
                    Isotopes and Nuclear Properties:
 (Nuclear quadrupole moments (NQMom) in fm**2, nuclear magnetic moments (NMagM)
  in nuclear magnetons)

  Atom         1           2           3           4           5           6
 IAtWgt=          12           1           1           1           1           1
 AtmWgt=  12.0000000   1.0078250   1.0078250   1.0078250   1.0078250   1.0078250
 NucSpn=           0           1           1           1           1           1
 AtZEff=   0.0000000   0.0000000   0.0000000   0.0000000   0.0000000   0.0000000
 NQMom=    0.0000000   0.0000000   0.0000000   0.0000000   0.0000000   0.0000000
 NMagM=    0.0000000   2.7928460   2.7928460   2.7928460   2.7928460   2.7928460
 Leave Link  101 at Wed Nov  3 01:18:47 2010, MaxMem=  786432000 cpu:       1.1
 (Enter /share/apps/G09A02/g09/l202.exe)
                          Input orientation:                          
 ---------------------------------------------------------------------
 Center     Atomic      Atomic             Coordinates (Angstroms)
 Number     Number       Type             X           Y           Z
 ---------------------------------------------------------------------
      1          6           0        0.000000    0.000000    0.000000
      2          1           0        0.000000    0.000000    1.090964
      3          1           0        1.027352    0.000000   -0.362598
      4          1           0       -0.513676   -0.889713   -0.362598
      5          1           0       -0.513676    0.889713   -0.362598
      6          1           0        0.000000    0.000000    3.058394
 ---------------------------------------------------------------------
                    Distance matrix (angstroms):
                    1          2          3          4          5
     1  C    0.000000
     2  H    1.090964   0.000000
     3  H    1.089463   1.779970   0.000000
     4  H    1.089463   1.779970   1.779426   0.000000
     5  H    1.089463   1.779970   1.779426   1.779426   0.000000
     6  H    3.058394   1.967430   3.571924   3.571924   3.571924
                    6
     6  H    0.000000
 Symmetry turned off by external request.
 Stoichiometry    CH5(2)
 Framework group  C3V[C3(HHC),3SGV(H)]
 Deg. of freedom     4
 Full point group                 C3V     NOp   6
 Rotational constants (GHZ):    158.3697745     41.9025138     41.9025138
 Leave Link  202 at Wed Nov  3 01:18:47 2010, MaxMem=  786432000 cpu:       0.0
 (Enter /share/apps/G09A02/g09/l301.exe)
 Standard basis: 6-311+G(3df,2p) (5D, 7F)
 Ernie: Thresh=  0.10000D-02 Tol=  0.10000D-05 Strict=F.
 Integral buffers will be    131072 words long.
 Raffenetti 2 integral format.
 Two-electron integral symmetry is turned off.
    84 basis functions,   113 primitive gaussians,    90 cartesian basis functions
     6 alpha electrons        5 beta electrons
       nuclear repulsion energy        15.1889529154 Hartrees.
 IExCor=10402 DFT=T Ex=LC-B+HF Corr=LYP ExCW=0 ScaHFX=  1.000000
 ScaDFX=  1.000000  1.000000  1.000000  1.000000 ScalE2=  1.000000  1.000000
 IRadAn=      0 IRanWt=     -1 IRanGd=            0 ICorTp=0
  HFx wShort=  0.000000 wLong=  0.470000 cFull=  0.000000 cShort=  0.000000 cLong=  1.000000
  DFx wShort=  0.000000 wLong=  0.470000 cFull=  0.000000 cShort=  0.000000 cLong=  1.000000
 NAtoms=    6 NActive=    6 NUniq=    6 SFac= 7.50D-01 NAtFMM=   80 NAOKFM=F Big=F
 Leave Link  301 at Wed Nov  3 01:18:47 2010, MaxMem=  786432000 cpu:       0.7
 (Enter /share/apps/G09A02/g09/l302.exe)
 NPDir=0 NMtPBC=     1 NCelOv=     1 NCel=       1 NClECP=     1 NCelD=      1
         NCelK=      1 NCelE2=     1 NClLst=     1 CellRange=     0.0.
 One-electron integrals computed using PRISM.
 NBasis=    84 RedAO= T  NBF=    84
 NBsUse=    84 1.00D-06 NBFU=    84
 Precomputing XC quadrature grid using
 IXCGrd= 2 IRadAn=           0 IRanWt=          -1 IRanGd=           0 AccXCQ= 1.00D-10.
 NRdTot=     383 NPtTot=       48740 NUsed=       51512 NTot=       51544
 NSgBfM=    90    90    90    90    90 NAtAll=     6     6.
 Leave Link  302 at Wed Nov  3 01:18:47 2010, MaxMem=  786432000 cpu:       2.5
 (Enter /share/apps/G09A02/g09/l303.exe)
 DipDrv:  MaxL=1.
 Leave Link  303 at Wed Nov  3 01:18:47 2010, MaxMem=  786432000 cpu:       0.4
 (Enter /share/apps/G09A02/g09/l401.exe)
 Harris functional with IExCor=10402 diagonalized for initial guess.
 ExpMin= 4.38D-02 ExpMax= 4.56D+03 ExpMxC= 6.82D+02 IAcc=2 IRadAn=         0 AccDes= 0.00D+00
 HarFok:  IExCor=10402 AccDes= 0.00D+00 IRadAn=         0 IDoV= 1
 ScaDFX=  1.000000  1.000000  1.000000  1.000000
 FoFCou: FMM=F IPFlag=           0 FMFlag=      100000 FMFlg1=           0
         NFxFlg=           0 DoJE=T BraDBF=F KetDBF=T FulRan=T
         Omega=  0.000000  0.000000  1.000000  0.000000  0.000000 ICntrl=     500 IOpCl=  0
         NMat0=    1 NMatS0=    1 NMatT0=    0 NMatD0=    1 NMtDS0=    0 NMtDT0=    0
         I1Cent=           4 NGrid=           0.
 Symmetry not used in FoFCou.
 Harris En= -38.5630010997977    
 Initial guess <Sx>= 0.0000 <Sy>= 0.0000 <Sz>= 0.5000 <S**2>= 0.7500 S= 0.5000
 Leave Link  401 at Wed Nov  3 01:18:48 2010, MaxMem=  786432000 cpu:       3.7
 (Enter /share/apps/G09A02/g09/l502.exe)
 UHF open shell SCF:
 Requested convergence on RMS density matrix=1.00D-08 within 128 cycles.
 Requested convergence on MAX density matrix=1.00D-06.
 Requested convergence on             energy=1.00D-06.
 No special actions if energy rises.
 Using DIIS extrapolation, IDIIS=  1040.
 Two-electron integral symmetry not used.
        51445 words used for storage of precomputed grid.
 IEnd=       95163 IEndB=       95163 NGot=   786432000 MDV=   786361668
 LenX=   786361668 LenY=   786353127
 Fock matrices will be formed incrementally for  20 cycles.

 Cycle   1  Pass 1  IDiag  1:
 FoFJK:  IHMeth= 1 ICntrl=     0 DoSepK=T KAlg= 1 I1Cent= 0 FoldK=F
 FoFCou: FMM=F IPFlag=           0 FMFlag=      100000 FMFlg1=           0
         NFxFlg=           0 DoJE=T BraDBF=F KetDBF=F FulRan=T
         Omega=  0.000000  0.000000  1.000000  0.000000  0.000000 ICntrl=     500 IOpCl=  0
         NMat0=    1 NMatS0=    1 NMatT0=    0 NMatD0=    1 NMtDS0=    0 NMtDT0=    0
         I1Cent=           0 NGrid=           0.
 Symmetry not used in FoFCou.
 E= -40.7958388102189    
 DIIS: error= 3.21D-02 at cycle   1 NSaved=   1.
 NSaved= 1 IEnMin= 1 EnMin= -40.7958388102189     IErMin= 1 ErrMin= 3.21D-02
 ErrMax= 3.21D-02 EMaxC= 1.00D-01 BMatC= 2.62D-01 BMatP= 2.62D-01
 IDIUse=3 WtCom= 6.79D-01 WtEn= 3.21D-01
 Coeff-Com:  0.100D+01
 Coeff-En:   0.100D+01
 Coeff:      0.100D+01
 Gap=     0.505 Goal=   None    Shift=    0.000
 Gap=     0.354 Goal=   None    Shift=    0.000
 GapD=    0.354 DampG=1.000 DampE=0.500 DampFc=0.5000 IDamp=-1.
 Damping current iteration by 5.00D-01
 RMSDP=5.66D-03 MaxDP=2.06D-01              OVMax= 1.67D-01

 Cycle   2  Pass 1  IDiag  1:
 RMSU=  2.10D-03    CP:  8.76D-01
 FoFJK:  IHMeth= 1 ICntrl=     0 DoSepK=T KAlg= 1 I1Cent= 0 FoldK=F
 E= -40.8390088887780     Delta-E=       -0.043170078559 Rises=F Damp=T
 DIIS: error= 1.11D-02 at cycle   2 NSaved=   2.
 NSaved= 2 IEnMin= 2 EnMin= -40.8390088887780     IErMin= 2 ErrMin= 1.11D-02
 ErrMax= 1.11D-02 EMaxC= 1.00D-01 BMatC= 2.16D-02 BMatP= 2.62D-01
 IDIUse=3 WtCom= 8.89D-01 WtEn= 1.11D-01
 Coeff-Com: -0.214D+00 0.121D+01
 Coeff-En:   0.000D+00 0.100D+01
 Coeff:     -0.191D+00 0.119D+01
 Gap=     0.534 Goal=   None    Shift=    0.000
 Gap=     0.475 Goal=   None    Shift=    0.000
 RMSDP=3.24D-03 MaxDP=1.30D-01 DE=-4.32D-02 OVMax= 5.27D-02

 Cycle   3  Pass 1  IDiag  1:
 RMSU=  9.95D-04    CP:  7.51D-01  2.08D+00
 FoFJK:  IHMeth= 1 ICntrl=     0 DoSepK=T KAlg= 1 I1Cent= 0 FoldK=F
 E= -40.8817633027171     Delta-E=       -0.042754413939 Rises=F Damp=F
 DIIS: error= 2.50D-03 at cycle   3 NSaved=   3.
 NSaved= 3 IEnMin= 3 EnMin= -40.8817633027171     IErMin= 3 ErrMin= 2.50D-03
 ErrMax= 2.50D-03 EMaxC= 1.00D-01 BMatC= 1.02D-03 BMatP= 2.16D-02
 IDIUse=3 WtCom= 9.75D-01 WtEn= 2.50D-02
 Coeff-Com:  0.369D-01-0.277D+00 0.124D+01
 Coeff-En:   0.000D+00 0.000D+00 0.100D+01
 Coeff:      0.360D-01-0.270D+00 0.123D+01
 Gap=     0.505 Goal=   None    Shift=    0.000
 Gap=     0.506 Goal=   None    Shift=    0.000
 RMSDP=7.73D-04 MaxDP=2.90D-02 DE=-4.28D-02 OVMax= 3.61D-02

 Cycle   4  Pass 1  IDiag  1:
 RMSU=  3.65D-04    CP:  7.26D-01  2.28D+00  1.31D+00
 FoFJK:  IHMeth= 1 ICntrl=     0 DoSepK=T KAlg= 1 I1Cent= 0 FoldK=F
 E= -40.8828102657346     Delta-E=       -0.001046963018 Rises=F Damp=F
 DIIS: error= 5.37D-04 at cycle   4 NSaved=   4.
 NSaved= 4 IEnMin= 4 EnMin= -40.8828102657346     IErMin= 4 ErrMin= 5.37D-04
 ErrMax= 5.37D-04 EMaxC= 1.00D-01 BMatC= 4.00D-05 BMatP= 1.02D-03
 IDIUse=3 WtCom= 9.95D-01 WtEn= 5.37D-03
 Coeff-Com: -0.677D-02 0.658D-02-0.160D+00 0.116D+01
 Coeff-En:   0.000D+00 0.000D+00 0.000D+00 0.100D+01
 Coeff:     -0.673D-02 0.655D-02-0.160D+00 0.116D+01
 Gap=     0.505 Goal=   None    Shift=    0.000
 Gap=     0.505 Goal=   None    Shift=    0.000
 RMSDP=1.27D-04 MaxDP=5.63D-03 DE=-1.05D-03 OVMax= 6.82D-03

 Cycle   5  Pass 1  IDiag  1:
 RMSU=  2.89D-05    CP:  7.23D-01  2.31D+00  1.35D+00  1.21D+00
 FoFJK:  IHMeth= 1 ICntrl=     0 DoSepK=T KAlg= 1 I1Cent= 0 FoldK=F
 E= -40.8828503344358     Delta-E=       -0.000040068701 Rises=F Damp=F
 DIIS: error= 2.20D-04 at cycle   5 NSaved=   5.
 NSaved= 5 IEnMin= 5 EnMin= -40.8828503344358     IErMin= 5 ErrMin= 2.20D-04
 ErrMax= 2.20D-04 EMaxC= 1.00D-01 BMatC= 1.38D-06 BMatP= 4.00D-05
 IDIUse=3 WtCom= 9.98D-01 WtEn= 2.20D-03
 Coeff-Com:  0.128D-02 0.407D-02 0.254D-01-0.371D+00 0.134D+01
 Coeff-En:   0.000D+00 0.000D+00 0.000D+00 0.000D+00 0.100D+01
 Coeff:      0.127D-02 0.406D-02 0.254D-01-0.371D+00 0.134D+01
 Gap=     0.505 Goal=   None    Shift=    0.000
 Gap=     0.504 Goal=   None    Shift=    0.000
 RMSDP=1.76D-05 MaxDP=4.65D-04 DE=-4.01D-05 OVMax= 1.75D-03

 Cycle   6  Pass 1  IDiag  1:
 RMSU=  3.06D-06    CP:  7.23D-01  2.30D+00  1.35D+00  1.22D+00  1.48D+00
 FoFJK:  IHMeth= 1 ICntrl=     0 DoSepK=T KAlg= 1 I1Cent= 0 FoldK=F
 E= -40.8828521315673     Delta-E=       -0.000001797131 Rises=F Damp=F
 DIIS: error= 5.36D-05 at cycle   6 NSaved=   6.
 NSaved= 6 IEnMin= 6 EnMin= -40.8828521315673     IErMin= 6 ErrMin= 5.36D-05
 ErrMax= 5.36D-05 EMaxC= 1.00D-01 BMatC= 8.95D-08 BMatP= 1.38D-06
 IDIUse=1 WtCom= 1.00D+00 WtEn= 0.00D+00
 Coeff-Com: -0.102D-03-0.120D-02-0.115D-02 0.572D-01-0.378D+00 0.132D+01
 Coeff:     -0.102D-03-0.120D-02-0.115D-02 0.572D-01-0.378D+00 0.132D+01
 Gap=     0.505 Goal=   None    Shift=    0.000
 Gap=     0.504 Goal=   None    Shift=    0.000
 RMSDP=3.54D-06 MaxDP=8.09D-05 DE=-1.80D-06 OVMax= 4.13D-04

 Cycle   7  Pass 1  IDiag  1:
 RMSU=  1.11D-06    CP:  7.23D-01  2.30D+00  1.35D+00  1.22D+00  1.53D+00
                    CP:  1.60D+00
 FoFJK:  IHMeth= 1 ICntrl=     0 DoSepK=T KAlg= 1 I1Cent= 0 FoldK=F
 E= -40.8828522351745     Delta-E=       -0.000000103607 Rises=F Damp=F
 DIIS: error= 1.36D-05 at cycle   7 NSaved=   7.
 NSaved= 7 IEnMin= 7 EnMin= -40.8828522351745     IErMin= 7 ErrMin= 1.36D-05
 ErrMax= 1.36D-05 EMaxC= 1.00D-01 BMatC= 8.59D-09 BMatP= 8.95D-08
 IDIUse=1 WtCom= 1.00D+00 WtEn= 0.00D+00
 Coeff-Com: -0.115D-03-0.248D-03-0.162D-02 0.243D-01-0.741D-01-0.107D+00
 Coeff-Com:  0.116D+01
 Coeff:     -0.115D-03-0.248D-03-0.162D-02 0.243D-01-0.741D-01-0.107D+00
 Coeff:      0.116D+01
 Gap=     0.505 Goal=   None    Shift=    0.000
 Gap=     0.504 Goal=   None    Shift=    0.000
 RMSDP=1.04D-06 MaxDP=2.05D-05 DE=-1.04D-07 OVMax= 8.38D-05

 Cycle   8  Pass 1  IDiag  1:
 RMSU=  2.12D-07    CP:  7.23D-01  2.30D+00  1.35D+00  1.22D+00  1.53D+00
                    CP:  1.79D+00  1.41D+00
 FoFJK:  IHMeth= 1 ICntrl=     0 DoSepK=T KAlg= 1 I1Cent= 0 FoldK=F
 E= -40.8828522423124     Delta-E=       -0.000000007138 Rises=F Damp=F
 DIIS: error= 4.05D-06 at cycle   8 NSaved=   8.
 NSaved= 8 IEnMin= 8 EnMin= -40.8828522423124     IErMin= 8 ErrMin= 4.05D-06
 ErrMax= 4.05D-06 EMaxC= 1.00D-01 BMatC= 1.00D-09 BMatP= 8.59D-09
 IDIUse=1 WtCom= 1.00D+00 WtEn= 0.00D+00
 Coeff-Com:  0.443D-04 0.212D-03 0.713D-03-0.146D-01 0.691D-01-0.992D-01
 Coeff-Com: -0.414D+00 0.146D+01
 Coeff:      0.443D-04 0.212D-03 0.713D-03-0.146D-01 0.691D-01-0.992D-01
 Coeff:     -0.414D+00 0.146D+01
 Gap=     0.505 Goal=   None    Shift=    0.000
 Gap=     0.504 Goal=   None    Shift=    0.000
 RMSDP=3.95D-07 MaxDP=1.02D-05 DE=-7.14D-09 OVMax= 2.38D-05

 Cycle   9  Pass 1  IDiag  1:
 RMSU=  7.72D-08    CP:  7.23D-01  2.30D+00  1.35D+00  1.22D+00  1.52D+00
                    CP:  1.83D+00  1.59D+00  1.69D+00
 FoFJK:  IHMeth= 1 ICntrl=     0 DoSepK=T KAlg= 1 I1Cent= 0 FoldK=F
 E= -40.8828522431558     Delta-E=       -0.000000000843 Rises=F Damp=F
 DIIS: error= 7.43D-07 at cycle   9 NSaved=   9.
 NSaved= 9 IEnMin= 9 EnMin= -40.8828522431558     IErMin= 9 ErrMin= 7.43D-07
 ErrMax= 7.43D-07 EMaxC= 1.00D-01 BMatC= 4.09D-11 BMatP= 1.00D-09
 IDIUse=1 WtCom= 1.00D+00 WtEn= 0.00D+00
 Coeff-Com: -0.262D-05-0.520D-04-0.144D-03 0.315D-02-0.172D-01 0.336D-01
 Coeff-Com:  0.755D-01-0.457D+00 0.136D+01
 Coeff:     -0.262D-05-0.520D-04-0.144D-03 0.315D-02-0.172D-01 0.336D-01
 Coeff:      0.755D-01-0.457D+00 0.136D+01
 Gap=     0.505 Goal=   None    Shift=    0.000
 Gap=     0.504 Goal=   None    Shift=    0.000
 RMSDP=1.04D-07 MaxDP=3.07D-06 DE=-8.43D-10 OVMax= 4.54D-06

 Cycle  10  Pass 1  IDiag  1:
 RMSU=  2.61D-08    CP:  7.23D-01  2.30D+00  1.35D+00  1.22D+00  1.53D+00
                    CP:  1.83D+00  1.59D+00  1.81D+00  1.46D+00
 FoFJK:  IHMeth= 1 ICntrl=     0 DoSepK=T KAlg= 1 I1Cent= 0 FoldK=F
 E= -40.8828522431897     Delta-E=       -0.000000000034 Rises=F Damp=F
 DIIS: error= 1.23D-07 at cycle  10 NSaved=  10.
 NSaved=10 IEnMin=10 EnMin= -40.8828522431897     IErMin=10 ErrMin= 1.23D-07
 ErrMax= 1.23D-07 EMaxC= 1.00D-01 BMatC= 1.94D-12 BMatP= 4.09D-11
 IDIUse=1 WtCom= 1.00D+00 WtEn= 0.00D+00
 Coeff-Com: -0.108D-05 0.118D-04 0.254D-04-0.630D-03 0.378D-02-0.861D-02
 Coeff-Com: -0.114D-01 0.106D+00-0.490D+00 0.140D+01
 Coeff:     -0.108D-05 0.118D-04 0.254D-04-0.630D-03 0.378D-02-0.861D-02
 Coeff:     -0.114D-01 0.106D+00-0.490D+00 0.140D+01
 Gap=     0.505 Goal=   None    Shift=    0.000
 Gap=     0.504 Goal=   None    Shift=    0.000
 RMSDP=2.17D-08 MaxDP=5.74D-07 DE=-3.39D-11 OVMax= 9.04D-07

 Cycle  11  Pass 1  IDiag  1:
 RMSU=  4.71D-09    CP:  7.23D-01  2.30D+00  1.35D+00  1.22D+00  1.53D+00
                    CP:  1.83D+00  1.59D+00  1.82D+00  1.54D+00  1.42D+00
 FoFJK:  IHMeth= 1 ICntrl=     0 DoSepK=T KAlg= 1 I1Cent= 0 FoldK=F
 E= -40.8828522431916     Delta-E=       -0.000000000002 Rises=F Damp=F
 DIIS: error= 3.84D-08 at cycle  11 NSaved=  11.
 NSaved=11 IEnMin=11 EnMin= -40.8828522431916     IErMin=11 ErrMin= 3.84D-08
 ErrMax= 3.84D-08 EMaxC= 1.00D-01 BMatC= 1.74D-13 BMatP= 1.94D-12
 IDIUse=1 WtCom= 1.00D+00 WtEn= 0.00D+00
 Coeff-Com:  0.486D-06-0.295D-05-0.367D-05 0.132D-03-0.854D-03 0.224D-02
 Coeff-Com:  0.500D-03-0.207D-01 0.130D+00-0.596D+00 0.149D+01
 Coeff:      0.486D-06-0.295D-05-0.367D-05 0.132D-03-0.854D-03 0.224D-02
 Coeff:      0.500D-03-0.207D-01 0.130D+00-0.596D+00 0.149D+01
 Gap=     0.505 Goal=   None    Shift=    0.000
 Gap=     0.504 Goal=   None    Shift=    0.000
 RMSDP=5.49D-09 MaxDP=8.33D-08 DE=-1.93D-12 OVMax= 2.21D-07

 SCF Done:  E(ULC-B+HF-LYP) =  -40.8828522432     A.U. after   11 cycles
             Convg  =    0.5493D-08             -V/T =  2.0049
 <Sx>= 0.0000 <Sy>= 0.0000 <Sz>= 0.5000 <S**2>= 0.7505 S= 0.5002
 <L.S>= 0.000000000000E+00
 KE= 4.068407138887D+01 PE=-1.245261183027D+02 EE= 2.777024175525D+01
 Annihilation of the first spin contaminant:
 S**2 before annihilation     0.7505,   after     0.7500
 Leave Link  502 at Wed Nov  3 01:19:20 2010, MaxMem=  786432000 cpu:     257.1
 (Enter /share/apps/G09A02/g09/l601.exe)
 Copying SCF densities to generalized density rwf, IOpCl= 1 IROHF=0.

 **********************************************************************

            Population analysis using the SCF density.

 **********************************************************************

 Alpha  occ. eigenvalues --  -10.11419  -0.86127  -0.54001  -0.52613  -0.52613
 Alpha  occ. eigenvalues --   -0.43889
 Alpha virt. eigenvalues --    0.06592   0.09515   0.09516   0.11064   0.22566
 Alpha virt. eigenvalues --    0.22567   0.25625   0.26893   0.35853   0.36427
 Alpha virt. eigenvalues --    0.36427   0.41842   0.41842   0.44985   0.64270
 Alpha virt. eigenvalues --    0.64270   0.67056   0.69517   0.69517   0.71059
 Alpha virt. eigenvalues --    0.78511   0.80191   0.80191   0.81745   0.99042
 Alpha virt. eigenvalues --    0.99104   1.00463   1.00463   1.10224   1.10224
 Alpha virt. eigenvalues --    1.25566   1.25566   1.32984   1.40838   1.40838
 Alpha virt. eigenvalues --    1.47266   1.70644   2.06609   2.06609   2.07686
 Alpha virt. eigenvalues --    2.07687   2.07847   2.42774   2.55772   2.78681
 Alpha virt. eigenvalues --    2.78681   2.81837   3.08924   3.09002   3.09002
 Alpha virt. eigenvalues --    3.43748   3.43748   3.47250   3.65045   3.65045
 Alpha virt. eigenvalues --    3.68052   3.82311   3.82311   4.06413   4.09761
 Alpha virt. eigenvalues --    4.31062   4.31062   4.34597   4.35491   4.35491
 Alpha virt. eigenvalues --    4.58656   4.58656   4.58728   5.05445   5.89217
 Alpha virt. eigenvalues --    5.89217   5.89294   7.30187   7.30187   7.91287
 Alpha virt. eigenvalues --    7.91287   7.92799  24.28933
  Beta  occ. eigenvalues --  -10.11350  -0.85924  -0.52621  -0.52568  -0.52568
  Beta virt. eigenvalues --   -0.02126   0.06996   0.09405   0.09405   0.11587
  Beta virt. eigenvalues --    0.22575   0.22575   0.26037   0.27217   0.36442
  Beta virt. eigenvalues --    0.36442   0.38848   0.41795   0.41795   0.48556
  Beta virt. eigenvalues --    0.64513   0.64513   0.67109   0.71259   0.73311
  Beta virt. eigenvalues --    0.73311   0.78927   0.80185   0.80186   0.82687
  Beta virt. eigenvalues --    0.99103   1.00546   1.00634   1.00634   1.10239
  Beta virt. eigenvalues --    1.10239   1.25585   1.25585   1.33209   1.40876
  Beta virt. eigenvalues --    1.40876   1.48189   1.71116   2.06693   2.06693
  Beta virt. eigenvalues --    2.07805   2.07805   2.08999   2.53069   2.64116
  Beta virt. eigenvalues --    2.78746   2.78746   2.82417   3.08952   3.09200
  Beta virt. eigenvalues --    3.09200   3.43870   3.43870   3.47446   3.65169
  Beta virt. eigenvalues --    3.65169   3.69055   3.97513   3.97513   4.07537
  Beta virt. eigenvalues --    4.21385   4.31093   4.31093   4.35479   4.35479
  Beta virt. eigenvalues --    4.35965   4.58693   4.58693   4.58751   5.05654
  Beta virt. eigenvalues --    5.89258   5.89258   5.89425   7.30389   7.30389
  Beta virt. eigenvalues --    7.91410   7.91411   7.93076  24.29026
          Condensed to atoms (all electrons):
              1          2          3          4          5          6
     1  C    5.092060   0.391680   0.402549   0.402549   0.402549  -0.000866
     2  H    0.391680   0.477483  -0.016804  -0.016804  -0.016804  -0.009833
     3  H    0.402549  -0.016804   0.482186  -0.017341  -0.017341   0.000116
     4  H    0.402549  -0.016804  -0.017341   0.482184  -0.017341   0.000116
     5  H    0.402549  -0.016804  -0.017341  -0.017341   0.482184   0.000116
     6  H   -0.000866  -0.009833   0.000116   0.000116   0.000116   1.010822
 Mulliken atomic charges:
              1
     1  C   -0.690521
     2  H    0.191081
     3  H    0.166635
     4  H    0.166637
     5  H    0.166637
     6  H   -0.000470
 Sum of Mulliken atomic charges =   0.00000
 Mulliken charges with hydrogens summed into heavy atoms:
              1
     1  C    0.000000
 Sum of Mulliken charges with hydrogens summed into heavy atoms =   0.00000
          Atomic-Atomic Spin Densities.
              1          2          3          4          5          6
     1  C    0.043845   0.005323  -0.000355  -0.000355  -0.000355  -0.005419
     2  H    0.005323  -0.017180   0.000810   0.000810   0.000810  -0.017717
     3  H   -0.000355   0.000810  -0.000694  -0.000152  -0.000152   0.000273
     4  H   -0.000355   0.000810  -0.000152  -0.000696  -0.000152   0.000273
     5  H   -0.000355   0.000810  -0.000152  -0.000152  -0.000696   0.000273
     6  H   -0.005419  -0.017717   0.000273   0.000273   0.000273   1.007590
 Mulliken atomic spin densities:
              1
     1  C    0.042685
     2  H   -0.027144
     3  H   -0.000271
     4  H   -0.000272
     5  H   -0.000272
     6  H    0.985274
 Sum of Mulliken atomic spin densities =   1.00000
 Electronic spatial extent (au):  <R**2>=             72.6686
 Charge=              0.0000 electrons
 Dipole moment (field-independent basis, Debye):
    X=              0.0000    Y=              0.0000    Z=             -0.0538  Tot=              0.0538
 Quadrupole moment (field-independent basis, Debye-Ang):
   XX=             -9.9235   YY=             -9.9235   ZZ=            -10.1466
   XY=              0.0000   XZ=              0.0000   YZ=              0.0000
 Traceless Quadrupole moment (field-independent basis, Debye-Ang):
   XX=              0.0744   YY=              0.0744   ZZ=             -0.1487
   XY=              0.0000   XZ=              0.0000   YZ=              0.0000
 Octapole moment (field-independent basis, Debye-Ang**2):
  XXX=              0.6648  YYY=              0.0000  ZZZ=            -12.8724  XYY=             -0.6648
  XXY=              0.0000  XXZ=             -4.8217  XZZ=              0.0000  YZZ=              0.0000
  YYZ=             -4.8217  XYZ=              0.0000
 Hexadecapole moment (field-independent basis, Debye-Ang**3):
 XXXX=            -18.4453 YYYY=            -18.4453 ZZZZ=           -100.6414 XXXY=              0.0000
 XXXZ=             -0.4232 YYYX=              0.0000 YYYZ=              0.0000 ZZZX=              0.0000
 ZZZY=              0.0000 XXYY=             -6.1484 XXZZ=            -19.8192 YYZZ=            -19.8192
 XXYZ=              0.0000 YYXZ=              0.4232 ZZXY=              0.0000
 N-N= 1.518895291542D+01 E-N=-1.853462760781D+02  KE= 6.075192285987D+01
                          Isotropic Fermi Contact Couplings
        Atom                 a.u.       MegaHertz       Gauss      10(-4) cm-1
     1  C(13)              0.01702      19.13725       6.82864       6.38350
     2  H(1)              -0.00026      -1.16255      -0.41483      -0.38779
     3  H(1)              -0.00022      -0.98807      -0.35257      -0.32959
     4  H(1)              -0.00022      -0.98801      -0.35255      -0.32956
     5  H(1)              -0.00022      -0.98801      -0.35255      -0.32956
     6  H(1)               0.28645    1280.38631     456.87366     427.09090
 --------------------------------------------------------
       Center         ----  Spin Dipole Couplings  ----
                      3XX-RR        3YY-RR        3ZZ-RR
 --------------------------------------------------------
     1   Atom       -0.028773     -0.028773      0.057547
     2   Atom       -0.024516     -0.024516      0.049033
     3   Atom        0.000143     -0.005472      0.005329
     4   Atom       -0.004068     -0.001261      0.005329
     5   Atom       -0.004068     -0.001261      0.005329
     6   Atom        0.000794      0.000794     -0.001588
 --------------------------------------------------------
                        XY            XZ            YZ
 --------------------------------------------------------
     1   Atom        0.000000      0.000000      0.000000
     2   Atom        0.000000      0.000000      0.000000
     3   Atom        0.000000     -0.003868      0.000000
     4   Atom        0.002431      0.001934      0.003349
     5   Atom       -0.002431      0.001934     -0.003349
     6   Atom        0.000000      0.000000      0.000000
 --------------------------------------------------------


 ---------------------------------------------------------------------------------
              Anisotropic Spin Dipole Couplings in Principal Axis System
 ---------------------------------------------------------------------------------

       Atom             a.u.   MegaHertz   Gauss  10(-4) cm-1        Axes

              Baa    -0.0288    -3.861    -1.378    -1.288  1.0000  0.0000  0.0000
     1 C(13)  Bbb    -0.0288    -3.861    -1.378    -1.288  0.0000  1.0000  0.0000
              Bcc     0.0575     7.722     2.755     2.576  0.0000  0.0000  1.0000
 
              Baa    -0.0245   -13.081    -4.668    -4.363  1.0000  0.0000  0.0000
     2 H(1)   Bbb    -0.0245   -13.081    -4.668    -4.363  0.0000  1.0000  0.0000
              Bcc     0.0490    26.162     9.335     8.727  0.0000  0.0000  1.0000
 
              Baa    -0.0055    -2.920    -1.042    -0.974  0.0000  1.0000  0.0000
     3 H(1)   Bbb    -0.0019    -1.025    -0.366    -0.342  0.8823  0.0000  0.4707
              Bcc     0.0074     3.944     1.407     1.316 -0.4707  0.0000  0.8823
 
              Baa    -0.0055    -2.920    -1.042    -0.974  0.8660 -0.5000  0.0000
     4 H(1)   Bbb    -0.0019    -1.025    -0.366    -0.342  0.4411  0.7641 -0.4707
              Bcc     0.0074     3.944     1.407     1.316  0.2353  0.4076  0.8823
 
              Baa    -0.0055    -2.920    -1.042    -0.974  0.8660  0.5000  0.0000
     5 H(1)   Bbb    -0.0019    -1.025    -0.366    -0.342 -0.4411  0.7641  0.4707
              Bcc     0.0074     3.944     1.407     1.316  0.2353 -0.4076  0.8823
 
              Baa    -0.0016    -0.847    -0.302    -0.283  0.0000  0.0000  1.0000
     6 H(1)   Bbb     0.0008     0.424     0.151     0.141  1.0000  0.0000  0.0000
              Bcc     0.0008     0.424     0.151     0.141  0.0000  1.0000  0.0000
 

 ---------------------------------------------------------------------------------

 No NMR shielding tensors so no spin-rotation constants.
 Leave Link  601 at Wed Nov  3 01:19:21 2010, MaxMem=  786432000 cpu:       3.8
 (Enter /share/apps/G09A02/g09/l9999.exe)
 1\1\GINC-COMPUTE-0-7\SP\ULC-BLYP\6-311+G(3df,2p)\C1H5(2)\WENXINZY\03-N
 ov-2010\0\\#p lc-blyp/6-311+g(3df,2p) nosymm scf=tight\\20 H_CH4\\0,2\
 C\H,1,1.0909636\H,1,1.0894629,2,109.440198\H,1,1.0894629,2,109.440198,
 3,120.,0\H,1,1.0894629,2,109.440198,3,-120.,0\H,2,1.9674304,1,180.,3,0
 .,0\\Version=EM64L-G09RevA.02\HF=-40.8828522\S2=0.750489\S2-1=0.\S2A=0
 .75\RMSD=5.493e-09\Dipole=0.0000002,0.,-0.0211737\Quadrupole=0.0552882
 ,0.0552912,-0.1105794,0.,0.0000002,0.\PG=C03V [C3(H1H1C1),3SGV(H1)]\\@


      TO SUSPECT YOUR OWN MORTALITY IS TO KNOW THE BEGINNING OF TERROR.
      TO LEARN IRREFUTABLY THAT YOU ARE MORTAL IS TO KNOW THE END
      OF TERROR.

                                                  -- JESSICA
                                                     CHILDREN OF DUNE
                                                     BY FRANK HERBERT
 Job cpu time:  0 days  0 hours  4 minutes 30.7 seconds.
 File lengths (MBytes):  RWF=      9 Int=      0 D2E=      0 Chk=      1 Scr=      1
 Normal termination of Gaussian 09 at Wed Nov  3 01:19:21 2010.
