 Entering Gaussian System, Link 0=/share/apps/G09A02/g09/g09
 Input=./.script12553/Job_H2_CH3_36.com
 Output=./.script12553/Job_H2_CH3_36.log
 Initial command:
 /share/apps/G09A02/g09/l1.exe /state/partition1/wenxinzy/scratch/Gau-21224.inp -scrdir=/state/partition1/wenxinzy/scratch/
 Default is to use a total of   8 processors:
                                8 via shared-memory
                                1 via Linda
 Entering Link 1 = /share/apps/G09A02/g09/l1.exe PID=     21225.
  
 Copyright (c) 1988,1990,1992,1993,1995,1998,2003,2009, Gaussian, Inc.
                  All Rights Reserved.
  
 This is part of the Gaussian(R) 09 program.  It is based on
 the Gaussian(R) 03 system (copyright 2003, Gaussian, Inc.),
 the Gaussian(R) 98 system (copyright 1998, Gaussian, Inc.),
 the Gaussian(R) 94 system (copyright 1995, Gaussian, Inc.),
 the Gaussian 92(TM) system (copyright 1992, Gaussian, Inc.),
 the Gaussian 90(TM) system (copyright 1990, Gaussian, Inc.),
 the Gaussian 88(TM) system (copyright 1988, Gaussian, Inc.),
 the Gaussian 86(TM) system (copyright 1986, Carnegie Mellon
 University), and the Gaussian 82(TM) system (copyright 1983,
 Carnegie Mellon University). Gaussian is a federally registered
 trademark of Gaussian, Inc.
  
 This software contains proprietary and confidential information,
 including trade secrets, belonging to Gaussian, Inc.
  
 This software is provided under written license and may be
 used, copied, transmitted, or stored only in accord with that
 written license.
  
 The following legend is applicable only to US Government
 contracts under FAR:
  
                    RESTRICTED RIGHTS LEGEND
  
 Use, reproduction and disclosure by the US Government is
 subject to restrictions as set forth in subparagraphs (a)
 and (c) of the Commercial Computer Software - Restricted
 Rights clause in FAR 52.227-19.
  
 Gaussian, Inc.
 340 Quinnipiac St., Bldg. 40, Wallingford CT 06492
  
  
 ---------------------------------------------------------------
 Warning -- This program may not be used in any manner that
 competes with the business of Gaussian, Inc. or will provide
 assistance to any competitor of Gaussian, Inc.  The licensee
 of this program is prohibited from giving any competitor of
 Gaussian, Inc. access to this program.  By using this program,
 the user acknowledges that Gaussian, Inc. is engaged in the
 business of creating and licensing software in the field of
 computational chemistry and represents and warrants to the
 licensee that it is not a competitor of Gaussian, Inc. and that
 it will not use this program in any manner prohibited above.
 ---------------------------------------------------------------
  

 Cite this work as:
 Gaussian 09, Revision A.02,
 M. J. Frisch, G. W. Trucks, H. B. Schlegel, G. E. Scuseria, 
 M. A. Robb, J. R. Cheeseman, G. Scalmani, V. Barone, B. Mennucci, 
 G. A. Petersson, H. Nakatsuji, M. Caricato, X. Li, H. P. Hratchian, 
 A. F. Izmaylov, J. Bloino, G. Zheng, J. L. Sonnenberg, M. Hada, 
 M. Ehara, K. Toyota, R. Fukuda, J. Hasegawa, M. Ishida, T. Nakajima, 
 Y. Honda, O. Kitao, H. Nakai, T. Vreven, J. A. Montgomery, Jr., 
 J. E. Peralta, F. Ogliaro, M. Bearpark, J. J. Heyd, E. Brothers, 
 K. N. Kudin, V. N. Staroverov, R. Kobayashi, J. Normand, 
 K. Raghavachari, A. Rendell, J. C. Burant, S. S. Iyengar, J. Tomasi, 
 M. Cossi, N. Rega, J. M. Millam, M. Klene, J. E. Knox, J. B. Cross, 
 V. Bakken, C. Adamo, J. Jaramillo, R. Gomperts, R. E. Stratmann, 
 O. Yazyev, A. J. Austin, R. Cammi, C. Pomelli, J. W. Ochterski, 
 R. L. Martin, K. Morokuma, V. G. Zakrzewski, G. A. Voth, 
 P. Salvador, J. J. Dannenberg, S. Dapprich, A. D. Daniels, 
 O. Farkas, J. B. Foresman, J. V. Ortiz, J. Cioslowski, 
 and D. J. Fox, Gaussian, Inc., Wallingford CT, 2009.
 
 ******************************************
 Gaussian 09:  EM64L-G09RevA.02 11-Jun-2009
                 3-Nov-2010 
 ******************************************
 %chk=/state/partition1/wenxinzy/scratch/H2_CH3_36.chk
 %nproc=8
 Will use up to    8 processors via shared memory.
 %mem=6000mb
 -------------------------------------------
 #p lc-blyp/6-311+g(3df,2p) nosymm scf=tight
 -------------------------------------------
 1/38=1/1;
 2/12=2,15=1,17=6,18=5,40=1/2;
 3/5=4,6=6,7=216,11=2,16=1,25=1,30=1,74=1000402/1,2,3;
 4//1;
 5/5=2,32=2,38=5/2;
 6/7=2,8=2,9=2,10=2,28=1/1;
 99/5=1,9=1/99;
 Leave Link    1 at Wed Nov  3 01:56:27 2010, MaxMem=  786432000 cpu:       0.3
 (Enter /share/apps/G09A02/g09/l101.exe)
 ---------
 37 H2+CH3
 ---------
 Symbolic Z-matrix:
 Charge =  0 Multiplicity = 2
 C
 H1                   C    R1
 H2                   C    R2       H1   A1
 H3                   C    R2       H1   A1       H2    120.     0
 H4                   C    R2       H1   A1       H2   -120.     0
 H5                   H1   R3       C     180.     H2    0.       0
       Variables:
  R1                    3.10915                  
  R2                    1.07922                  
  A1                   90.19285                  
  R3                    0.7434                   
 
 NAtoms=      6 NQM=      6 NQMF=      0 NMic=      0 NMicF=      0 NTot=      6.
                    Isotopes and Nuclear Properties:
 (Nuclear quadrupole moments (NQMom) in fm**2, nuclear magnetic moments (NMagM)
  in nuclear magnetons)

  Atom         1           2           3           4           5           6
 IAtWgt=          12           1           1           1           1           1
 AtmWgt=  12.0000000   1.0078250   1.0078250   1.0078250   1.0078250   1.0078250
 NucSpn=           0           1           1           1           1           1
 AtZEff=   0.0000000   0.0000000   0.0000000   0.0000000   0.0000000   0.0000000
 NQMom=    0.0000000   0.0000000   0.0000000   0.0000000   0.0000000   0.0000000
 NMagM=    0.0000000   2.7928460   2.7928460   2.7928460   2.7928460   2.7928460
 Leave Link  101 at Wed Nov  3 01:56:28 2010, MaxMem=  786432000 cpu:       1.2
 (Enter /share/apps/G09A02/g09/l202.exe)
                          Input orientation:                          
 ---------------------------------------------------------------------
 Center     Atomic      Atomic             Coordinates (Angstroms)
 Number     Number       Type             X           Y           Z
 ---------------------------------------------------------------------
      1          6           0        0.000000    0.000000    0.000000
      2          1           0        0.000000    0.000000    3.109147
      3          1           0        1.079214    0.000000   -0.003632
      4          1           0       -0.539607   -0.934627   -0.003632
      5          1           0       -0.539607    0.934627   -0.003632
      6          1           0        0.000000    0.000000    3.852544
 ---------------------------------------------------------------------
                    Distance matrix (angstroms):
                    1          2          3          4          5
     1  C    0.000000
     2  H    3.109147   0.000000
     3  H    1.079221   3.294556   0.000000
     4  H    1.079221   3.294556   1.869254   0.000000
     5  H    1.079221   3.294556   1.869254   1.869254   0.000000
     6  H    3.852544   0.743397   4.004348   4.004348   4.004348
                    6
     6  H    0.000000
 Symmetry turned off by external request.
 Stoichiometry    CH5(2)
 Framework group  C3V[C3(HHC),3SGV(H)]
 Deg. of freedom     4
 Full point group                 C3V     NOp   6
 Rotational constants (GHZ):    143.5143291     21.4312170     21.4312170
 Leave Link  202 at Wed Nov  3 01:56:28 2010, MaxMem=  786432000 cpu:       0.0
 (Enter /share/apps/G09A02/g09/l301.exe)
 Standard basis: 6-311+G(3df,2p) (5D, 7F)
 Ernie: Thresh=  0.10000D-02 Tol=  0.10000D-05 Strict=F.
 Integral buffers will be    131072 words long.
 Raffenetti 2 integral format.
 Two-electron integral symmetry is turned off.
    84 basis functions,   113 primitive gaussians,    90 cartesian basis functions
     6 alpha electrons        5 beta electrons
       nuclear repulsion energy        13.1107772372 Hartrees.
 IExCor=10402 DFT=T Ex=LC-B+HF Corr=LYP ExCW=0 ScaHFX=  1.000000
 ScaDFX=  1.000000  1.000000  1.000000  1.000000 ScalE2=  1.000000  1.000000
 IRadAn=      0 IRanWt=     -1 IRanGd=            0 ICorTp=0
  HFx wShort=  0.000000 wLong=  0.470000 cFull=  0.000000 cShort=  0.000000 cLong=  1.000000
  DFx wShort=  0.000000 wLong=  0.470000 cFull=  0.000000 cShort=  0.000000 cLong=  1.000000
 NAtoms=    6 NActive=    6 NUniq=    6 SFac= 7.50D-01 NAtFMM=   80 NAOKFM=F Big=F
 Leave Link  301 at Wed Nov  3 01:56:28 2010, MaxMem=  786432000 cpu:       0.6
 (Enter /share/apps/G09A02/g09/l302.exe)
 NPDir=0 NMtPBC=     1 NCelOv=     1 NCel=       1 NClECP=     1 NCelD=      1
         NCelK=      1 NCelE2=     1 NClLst=     1 CellRange=     0.0.
 One-electron integrals computed using PRISM.
 NBasis=    84 RedAO= T  NBF=    84
 NBsUse=    84 1.00D-06 NBFU=    84
 Precomputing XC quadrature grid using
 IXCGrd= 2 IRadAn=           0 IRanWt=          -1 IRanGd=           0 AccXCQ= 1.00D-10.
 NRdTot=     384 NPtTot=       48302 NUsed=       51081 NTot=       51113
 NSgBfM=    90    90    90    90    90 NAtAll=     6     6.
 Leave Link  302 at Wed Nov  3 01:56:28 2010, MaxMem=  786432000 cpu:       2.6
 (Enter /share/apps/G09A02/g09/l303.exe)
 DipDrv:  MaxL=1.
 Leave Link  303 at Wed Nov  3 01:56:28 2010, MaxMem=  786432000 cpu:       1.1
 (Enter /share/apps/G09A02/g09/l401.exe)
 Harris functional with IExCor=10402 diagonalized for initial guess.
 ExpMin= 4.38D-02 ExpMax= 4.56D+03 ExpMxC= 6.82D+02 IAcc=2 IRadAn=         0 AccDes= 0.00D+00
 HarFok:  IExCor=10402 AccDes= 0.00D+00 IRadAn=         0 IDoV= 1
 ScaDFX=  1.000000  1.000000  1.000000  1.000000
 FoFCou: FMM=F IPFlag=           0 FMFlag=      100000 FMFlg1=           0
         NFxFlg=           0 DoJE=T BraDBF=F KetDBF=T FulRan=T
         Omega=  0.000000  0.000000  1.000000  0.000000  0.000000 ICntrl=     500 IOpCl=  0
         NMat0=    1 NMatS0=    1 NMatT0=    0 NMatD0=    1 NMtDS0=    0 NMtDT0=    0
         I1Cent=           4 NGrid=           0.
 Symmetry not used in FoFCou.
 Harris En= -38.5361723653759    
 Initial guess <Sx>= 0.0000 <Sy>= 0.0000 <Sz>= 0.5000 <S**2>= 0.7500 S= 0.5000
 Leave Link  401 at Wed Nov  3 01:56:29 2010, MaxMem=  786432000 cpu:       3.6
 (Enter /share/apps/G09A02/g09/l502.exe)
 UHF open shell SCF:
 Requested convergence on RMS density matrix=1.00D-08 within 128 cycles.
 Requested convergence on MAX density matrix=1.00D-06.
 Requested convergence on             energy=1.00D-06.
 No special actions if energy rises.
 Using DIIS extrapolation, IDIIS=  1040.
 Two-electron integral symmetry not used.
        51014 words used for storage of precomputed grid.
 IEnd=       94732 IEndB=       94732 NGot=   786432000 MDV=   786362099
 LenX=   786362099 LenY=   786353558
 Fock matrices will be formed incrementally for  20 cycles.

 Cycle   1  Pass 1  IDiag  1:
 FoFJK:  IHMeth= 1 ICntrl=     0 DoSepK=T KAlg= 1 I1Cent= 0 FoldK=F
 FoFCou: FMM=F IPFlag=           0 FMFlag=      100000 FMFlg1=           0
         NFxFlg=           0 DoJE=T BraDBF=F KetDBF=F FulRan=T
         Omega=  0.000000  0.000000  1.000000  0.000000  0.000000 ICntrl=     500 IOpCl=  0
         NMat0=    1 NMatS0=    1 NMatT0=    0 NMatD0=    1 NMtDS0=    0 NMtDT0=    0
         I1Cent=           0 NGrid=           0.
 Symmetry not used in FoFCou.
 E= -40.8562989867372    
 DIIS: error= 2.10D-02 at cycle   1 NSaved=   1.
 NSaved= 1 IEnMin= 1 EnMin= -40.8562989867372     IErMin= 1 ErrMin= 2.10D-02
 ErrMax= 2.10D-02 EMaxC= 1.00D-01 BMatC= 6.02D-02 BMatP= 6.02D-02
 IDIUse=3 WtCom= 7.90D-01 WtEn= 2.10D-01
 Coeff-Com:  0.100D+01
 Coeff-En:   0.100D+01
 Coeff:      0.100D+01
 Gap=     0.390 Goal=   None    Shift=    0.000
 Gap=     0.621 Goal=   None    Shift=    0.000
 GapD=    0.390 DampG=1.000 DampE=0.500 DampFc=0.5000 IDamp=-1.
 Damping current iteration by 5.00D-01
 RMSDP=1.45D-03 MaxDP=6.44D-02              OVMax= 5.26D-02

 Cycle   2  Pass 1  IDiag  1:
 RMSU=  5.32D-04    CP:  9.82D-01
 FoFJK:  IHMeth= 1 ICntrl=     0 DoSepK=T KAlg= 1 I1Cent= 0 FoldK=F
 E= -40.8648908786092     Delta-E=       -0.008591891872 Rises=F Damp=T
 DIIS: error= 9.42D-03 at cycle   2 NSaved=   2.
 NSaved= 2 IEnMin= 2 EnMin= -40.8648908786092     IErMin= 2 ErrMin= 9.42D-03
 ErrMax= 9.42D-03 EMaxC= 1.00D-01 BMatC= 9.82D-03 BMatP= 6.02D-02
 IDIUse=3 WtCom= 9.06D-01 WtEn= 9.42D-02
 Coeff-Com: -0.436D+00 0.144D+01
 Coeff-En:   0.000D+00 0.100D+01
 Coeff:     -0.395D+00 0.140D+01
 Gap=     0.430 Goal=   None    Shift=    0.000
 Gap=     0.565 Goal=   None    Shift=    0.000
 RMSDP=7.86D-04 MaxDP=2.48D-02 DE=-8.59D-03 OVMax= 4.39D-02

 Cycle   3  Pass 1  IDiag  1:
 RMSU=  4.61D-04    CP:  9.76D-01  1.87D+00
 FoFJK:  IHMeth= 1 ICntrl=     0 DoSepK=T KAlg= 1 I1Cent= 0 FoldK=F
 E= -40.8745726233135     Delta-E=       -0.009681744704 Rises=F Damp=F
 DIIS: error= 2.91D-03 at cycle   3 NSaved=   3.
 NSaved= 3 IEnMin= 3 EnMin= -40.8745726233135     IErMin= 3 ErrMin= 2.91D-03
 ErrMax= 2.91D-03 EMaxC= 1.00D-01 BMatC= 7.26D-04 BMatP= 9.82D-03
 IDIUse=3 WtCom= 9.71D-01 WtEn= 2.91D-02
 Coeff-Com: -0.664D-01-0.646D-01 0.113D+01
 Coeff-En:   0.000D+00 0.000D+00 0.100D+01
 Coeff:     -0.645D-01-0.627D-01 0.113D+01
 Gap=     0.433 Goal=   None    Shift=    0.000
 Gap=     0.563 Goal=   None    Shift=    0.000
 RMSDP=2.68D-04 MaxDP=1.02D-02 DE=-9.68D-03 OVMax= 2.24D-02

 Cycle   4  Pass 1  IDiag  1:
 RMSU=  7.05D-05    CP:  9.73D-01  2.14D+00  1.33D+00
 FoFJK:  IHMeth= 1 ICntrl=     0 DoSepK=T KAlg= 1 I1Cent= 0 FoldK=F
 E= -40.8751107056437     Delta-E=       -0.000538082330 Rises=F Damp=F
 DIIS: error= 1.35D-03 at cycle   4 NSaved=   4.
 NSaved= 4 IEnMin= 4 EnMin= -40.8751107056437     IErMin= 4 ErrMin= 1.35D-03
 ErrMax= 1.35D-03 EMaxC= 1.00D-01 BMatC= 5.73D-05 BMatP= 7.26D-04
 IDIUse=3 WtCom= 9.86D-01 WtEn= 1.35D-02
 Coeff-Com:  0.351D-01-0.550D-01-0.362D+00 0.138D+01
 Coeff-En:   0.000D+00 0.000D+00 0.000D+00 0.100D+01
 Coeff:      0.346D-01-0.542D-01-0.357D+00 0.138D+01
 Gap=     0.435 Goal=   None    Shift=    0.000
 Gap=     0.563 Goal=   None    Shift=    0.000
 RMSDP=1.09D-04 MaxDP=4.25D-03 DE=-5.38D-04 OVMax= 1.00D-02

 Cycle   5  Pass 1  IDiag  1:
 RMSU=  1.37D-05    CP:  9.72D-01  2.21D+00  1.46D+00  1.68D+00
 FoFJK:  IHMeth= 1 ICntrl=     0 DoSepK=T KAlg= 1 I1Cent= 0 FoldK=F
 E= -40.8751750803538     Delta-E=       -0.000064374710 Rises=F Damp=F
 DIIS: error= 2.36D-04 at cycle   5 NSaved=   5.
 NSaved= 5 IEnMin= 5 EnMin= -40.8751750803538     IErMin= 5 ErrMin= 2.36D-04
 ErrMax= 2.36D-04 EMaxC= 1.00D-01 BMatC= 3.59D-06 BMatP= 5.73D-05
 IDIUse=3 WtCom= 9.98D-01 WtEn= 2.36D-03
 Coeff-Com: -0.704D-02 0.225D-01 0.726D-01-0.538D+00 0.145D+01
 Coeff-En:   0.000D+00 0.000D+00 0.000D+00 0.000D+00 0.100D+01
 Coeff:     -0.702D-02 0.224D-01 0.724D-01-0.536D+00 0.145D+01
 Gap=     0.435 Goal=   None    Shift=    0.000
 Gap=     0.563 Goal=   None    Shift=    0.000
 RMSDP=2.35D-05 MaxDP=7.28D-04 DE=-6.44D-05 OVMax= 1.54D-03

 Cycle   6  Pass 1  IDiag  1:
 RMSU=  4.10D-06    CP:  9.72D-01  2.21D+00  1.48D+00  1.87D+00  1.70D+00
 FoFJK:  IHMeth= 1 ICntrl=     0 DoSepK=T KAlg= 1 I1Cent= 0 FoldK=F
 E= -40.8751783673762     Delta-E=       -0.000003287022 Rises=F Damp=F
 DIIS: error= 3.45D-05 at cycle   6 NSaved=   6.
 NSaved= 6 IEnMin= 6 EnMin= -40.8751783673762     IErMin= 6 ErrMin= 3.45D-05
 ErrMax= 3.45D-05 EMaxC= 1.00D-01 BMatC= 1.89D-07 BMatP= 3.59D-06
 IDIUse=1 WtCom= 1.00D+00 WtEn= 0.00D+00
 Coeff-Com:  0.154D-03-0.442D-02-0.117D-01 0.141D+00-0.559D+00 0.143D+01
 Coeff:      0.154D-03-0.442D-02-0.117D-01 0.141D+00-0.559D+00 0.143D+01
 Gap=     0.435 Goal=   None    Shift=    0.000
 Gap=     0.563 Goal=   None    Shift=    0.000
 RMSDP=4.79D-06 MaxDP=1.01D-04 DE=-3.29D-06 OVMax= 2.36D-04

 Cycle   7  Pass 1  IDiag  1:
 RMSU=  1.22D-06    CP:  9.72D-01  2.21D+00  1.47D+00  1.87D+00  1.84D+00
                    CP:  1.79D+00
 FoFJK:  IHMeth= 1 ICntrl=     0 DoSepK=T KAlg= 1 I1Cent= 0 FoldK=F
 E= -40.8751785457308     Delta-E=       -0.000000178355 Rises=F Damp=F
 DIIS: error= 1.18D-05 at cycle   7 NSaved=   7.
 NSaved= 7 IEnMin= 7 EnMin= -40.8751785457308     IErMin= 7 ErrMin= 1.18D-05
 ErrMax= 1.18D-05 EMaxC= 1.00D-01 BMatC= 1.26D-08 BMatP= 1.89D-07
 IDIUse=1 WtCom= 1.00D+00 WtEn= 0.00D+00
 Coeff-Com:  0.813D-03-0.118D-02-0.221D-02 0.747D-02 0.240D-01-0.364D+00
 Coeff-Com:  0.133D+01
 Coeff:      0.813D-03-0.118D-02-0.221D-02 0.747D-02 0.240D-01-0.364D+00
 Coeff:      0.133D+01
 Gap=     0.435 Goal=   None    Shift=    0.000
 Gap=     0.563 Goal=   None    Shift=    0.000
 RMSDP=1.51D-06 MaxDP=3.53D-05 DE=-1.78D-07 OVMax= 7.54D-05

 Cycle   8  Pass 1  IDiag  1:
 RMSU=  2.67D-07    CP:  9.72D-01  2.21D+00  1.47D+00  1.87D+00  1.86D+00
                    CP:  2.04D+00  1.51D+00
 FoFJK:  IHMeth= 1 ICntrl=     0 DoSepK=T KAlg= 1 I1Cent= 0 FoldK=F
 E= -40.8751785570225     Delta-E=       -0.000000011292 Rises=F Damp=F
 DIIS: error= 1.40D-06 at cycle   8 NSaved=   8.
 NSaved= 8 IEnMin= 8 EnMin= -40.8751785570225     IErMin= 8 ErrMin= 1.40D-06
 ErrMax= 1.40D-06 EMaxC= 1.00D-01 BMatC= 2.78D-10 BMatP= 1.26D-08
 IDIUse=1 WtCom= 1.00D+00 WtEn= 0.00D+00
 Coeff-Com: -0.255D-04 0.245D-03 0.689D-03-0.765D-02 0.281D-01-0.581D-01
 Coeff-Com: -0.409D-01 0.108D+01
 Coeff:     -0.255D-04 0.245D-03 0.689D-03-0.765D-02 0.281D-01-0.581D-01
 Coeff:     -0.409D-01 0.108D+01
 Gap=     0.435 Goal=   None    Shift=    0.000
 Gap=     0.563 Goal=   None    Shift=    0.000
 RMSDP=2.08D-07 MaxDP=7.45D-06 DE=-1.13D-08 OVMax= 6.77D-06

 Cycle   9  Pass 1  IDiag  1:
 RMSU=  3.78D-08    CP:  9.72D-01  2.21D+00  1.47D+00  1.87D+00  1.85D+00
                    CP:  2.06D+00  1.60D+00  1.31D+00
 FoFJK:  IHMeth= 1 ICntrl=     0 DoSepK=T KAlg= 1 I1Cent= 0 FoldK=F
 E= -40.8751785571771     Delta-E=       -0.000000000155 Rises=F Damp=F
 DIIS: error= 5.85D-07 at cycle   9 NSaved=   9.
 NSaved= 9 IEnMin= 9 EnMin= -40.8751785571771     IErMin= 9 ErrMin= 5.85D-07
 ErrMax= 5.85D-07 EMaxC= 1.00D-01 BMatC= 1.68D-11 BMatP= 2.78D-10
 IDIUse=1 WtCom= 1.00D+00 WtEn= 0.00D+00
 Coeff-Com: -0.338D-04 0.872D-05-0.745D-04 0.123D-02-0.650D-02 0.257D-01
 Coeff-Com: -0.384D-01-0.217D+00 0.124D+01
 Coeff:     -0.338D-04 0.872D-05-0.745D-04 0.123D-02-0.650D-02 0.257D-01
 Coeff:     -0.384D-01-0.217D+00 0.124D+01
 Gap=     0.435 Goal=   None    Shift=    0.000
 Gap=     0.563 Goal=   None    Shift=    0.000
 RMSDP=5.15D-08 MaxDP=1.42D-06 DE=-1.55D-10 OVMax= 2.52D-06

 Cycle  10  Pass 1  IDiag  1:
 RMSU=  1.29D-08    CP:  9.72D-01  2.21D+00  1.47D+00  1.87D+00  1.85D+00
                    CP:  2.06D+00  1.61D+00  1.38D+00  1.47D+00
 FoFJK:  IHMeth= 1 ICntrl=     0 DoSepK=T KAlg= 1 I1Cent= 0 FoldK=F
 E= -40.8751785571898     Delta-E=       -0.000000000013 Rises=F Damp=F
 DIIS: error= 2.85D-07 at cycle  10 NSaved=  10.
 NSaved=10 IEnMin=10 EnMin= -40.8751785571898     IErMin=10 ErrMin= 2.85D-07
 ErrMax= 2.85D-07 EMaxC= 1.00D-01 BMatC= 2.41D-12 BMatP= 1.68D-11
 IDIUse=1 WtCom= 1.00D+00 WtEn= 0.00D+00
 Coeff-Com:  0.232D-04-0.260D-04-0.476D-05-0.122D-03 0.154D-02-0.975D-02
 Coeff-Com:  0.226D-01 0.451D-01-0.634D+00 0.157D+01
 Coeff:      0.232D-04-0.260D-04-0.476D-05-0.122D-03 0.154D-02-0.975D-02
 Coeff:      0.226D-01 0.451D-01-0.634D+00 0.157D+01
 Gap=     0.435 Goal=   None    Shift=    0.000
 Gap=     0.563 Goal=   None    Shift=    0.000
 RMSDP=1.91D-08 MaxDP=5.36D-07 DE=-1.27D-11 OVMax= 1.37D-06

 Cycle  11  Pass 1  IDiag  1:
 RMSU=  5.75D-09    CP:  9.72D-01  2.21D+00  1.47D+00  1.87D+00  1.85D+00
                    CP:  2.06D+00  1.61D+00  1.39D+00  1.66D+00  1.77D+00
 FoFJK:  IHMeth= 1 ICntrl=     0 DoSepK=T KAlg= 1 I1Cent= 0 FoldK=F
 E= -40.8751785571936     Delta-E=       -0.000000000004 Rises=F Damp=F
 DIIS: error= 9.86D-08 at cycle  11 NSaved=  11.
 NSaved=11 IEnMin=11 EnMin= -40.8751785571936     IErMin=11 ErrMin= 9.86D-08
 ErrMax= 9.86D-08 EMaxC= 1.00D-01 BMatC= 2.80D-13 BMatP= 2.41D-12
 IDIUse=1 WtCom= 1.00D+00 WtEn= 0.00D+00
 Coeff-Com: -0.802D-05 0.130D-04 0.101D-04-0.101D-03 0.106D-03 0.138D-02
 Coeff-Com: -0.622D-02 0.697D-02 0.136D+00-0.739D+00 0.160D+01
 Coeff:     -0.802D-05 0.130D-04 0.101D-04-0.101D-03 0.106D-03 0.138D-02
 Coeff:     -0.622D-02 0.697D-02 0.136D+00-0.739D+00 0.160D+01
 Gap=     0.435 Goal=   None    Shift=    0.000
 Gap=     0.563 Goal=   None    Shift=    0.000
 RMSDP=8.14D-09 MaxDP=2.69D-07 DE=-3.84D-12 OVMax= 6.08D-07

 SCF Done:  E(ULC-B+HF-LYP) =  -40.8751785572     A.U. after   11 cycles
             Convg  =    0.8137D-08             -V/T =  2.0050
 <Sx>= 0.0000 <Sy>= 0.0000 <Sz>= 0.5000 <S**2>= 0.7535 S= 0.5018
 <L.S>= 0.000000000000E+00
 KE= 4.067304221124D+01 PE=-1.202721025941D+02 EE= 2.561310458839D+01
 Annihilation of the first spin contaminant:
 S**2 before annihilation     0.7535,   after     0.7500
 Leave Link  502 at Wed Nov  3 01:57:01 2010, MaxMem=  786432000 cpu:     254.9
 (Enter /share/apps/G09A02/g09/l601.exe)
 Copying SCF densities to generalized density rwf, IOpCl= 1 IROHF=0.

 **********************************************************************

            Population analysis using the SCF density.

 **********************************************************************

 Alpha  occ. eigenvalues --  -10.14725  -0.85383  -0.56410  -0.55872  -0.55872
 Alpha  occ. eigenvalues --   -0.36630
 Alpha virt. eigenvalues --    0.06870   0.09247   0.09247   0.12787   0.16195
 Alpha virt. eigenvalues --    0.23396   0.23396   0.24012   0.35762   0.38926
 Alpha virt. eigenvalues --    0.38926   0.40353   0.40353   0.46648   0.62894
 Alpha virt. eigenvalues --    0.62894   0.63041   0.64176   0.66029   0.66029
 Alpha virt. eigenvalues --    0.71518   0.81194   0.82666   0.82667   0.94770
 Alpha virt. eigenvalues --    1.00409   1.00409   1.01752   1.12293   1.12293
 Alpha virt. eigenvalues --    1.18698   1.18698   1.20218   1.46481   1.49060
 Alpha virt. eigenvalues --    1.49060   1.60797   1.78654   1.78654   2.10476
 Alpha virt. eigenvalues --    2.14485   2.14485   2.39689   2.54594   2.59041
 Alpha virt. eigenvalues --    2.76789   2.76790   2.83524   3.05627   3.12507
 Alpha virt. eigenvalues --    3.12507   3.15439   3.20825   3.20825   3.54790
 Alpha virt. eigenvalues --    3.54790   3.72353   3.72353   3.86992   4.01670
 Alpha virt. eigenvalues --    4.27856   4.27856   4.33660   4.33661   4.34719
 Alpha virt. eigenvalues --    4.37624   4.37624   4.96590   5.35075   5.72827
 Alpha virt. eigenvalues --    5.72827   5.74265   7.15141   7.15141   7.27768
 Alpha virt. eigenvalues --    7.72565   7.72565  24.22725
  Beta  occ. eigenvalues --  -10.13306  -0.80782  -0.56276  -0.54810  -0.54810
  Beta virt. eigenvalues --    0.01482   0.06779   0.09071   0.09071   0.14995
  Beta virt. eigenvalues --    0.17008   0.23629   0.23629   0.24922   0.35973
  Beta virt. eigenvalues --    0.40074   0.40074   0.40400   0.40400   0.48326
  Beta virt. eigenvalues --    0.62991   0.62991   0.63575   0.66783   0.66783
  Beta virt. eigenvalues --    0.67732   0.71741   0.82100   0.82644   0.82644
  Beta virt. eigenvalues --    0.94735   1.00866   1.00866   1.02536   1.12436
  Beta virt. eigenvalues --    1.12436   1.18699   1.18699   1.20593   1.49271
  Beta virt. eigenvalues --    1.49582   1.49583   1.60890   1.83468   1.83468
  Beta virt. eigenvalues --    2.13668   2.15464   2.15464   2.40092   2.54798
  Beta virt. eigenvalues --    2.59075   2.78054   2.78054   2.89221   3.06027
  Beta virt. eigenvalues --    3.15454   3.15454   3.19727   3.24220   3.24220
  Beta virt. eigenvalues --    3.54857   3.54857   3.73261   3.73261   3.87188
  Beta virt. eigenvalues --    4.02076   4.27492   4.27492   4.34028   4.34028
  Beta virt. eigenvalues --    4.35444   4.38086   4.38086   4.96756   5.36034
  Beta virt. eigenvalues --    5.73413   5.73413   5.74312   7.21452   7.21454
  Beta virt. eigenvalues --    7.35783   7.74181   7.74181  24.24593
          Condensed to atoms (all electrons):
              1          2          3          4          5          6
     1  C    5.372020  -0.003544   0.401781   0.401783   0.401783  -0.005098
     2  H   -0.003544   0.587809   0.000053   0.000053   0.000053   0.422306
     3  H    0.401781   0.000053   0.449254  -0.021102  -0.021102   0.000021
     4  H    0.401783   0.000053  -0.021102   0.449249  -0.021101   0.000021
     5  H    0.401783   0.000053  -0.021102  -0.021101   0.449249   0.000021
     6  H   -0.005098   0.422306   0.000021   0.000021   0.000021   0.580563
 Mulliken atomic charges:
              1
     1  C   -0.568724
     2  H   -0.006730
     3  H    0.191094
     4  H    0.191097
     5  H    0.191097
     6  H    0.002166
 Sum of Mulliken atomic charges =   0.00000
 Mulliken charges with hydrogens summed into heavy atoms:
              1
     1  C    0.000000
 Sum of Mulliken charges with hydrogens summed into heavy atoms =   0.00000
          Atomic-Atomic Spin Densities.
              1          2          3          4          5          6
     1  C    1.057920  -0.000741   0.005166   0.005165   0.005165  -0.003746
     2  H   -0.000741  -0.004472  -0.000014  -0.000014  -0.000014   0.000476
     3  H    0.005166  -0.000014  -0.034679   0.002928   0.002928  -0.000013
     4  H    0.005165  -0.000014   0.002928  -0.034679   0.002928  -0.000013
     5  H    0.005165  -0.000014   0.002928   0.002928  -0.034679  -0.000013
     6  H   -0.003746   0.000476  -0.000013  -0.000013  -0.000013   0.010207
 Mulliken atomic spin densities:
              1
     1  C    1.068930
     2  H   -0.004779
     3  H   -0.023684
     4  H   -0.023684
     5  H   -0.023684
     6  H    0.006900
 Sum of Mulliken atomic spin densities =   1.00000
 Electronic spatial extent (au):  <R**2>=            122.2611
 Charge=              0.0000 electrons
 Dipole moment (field-independent basis, Debye):
    X=              0.0000    Y=              0.0000    Z=             -0.0622  Tot=              0.0622
 Quadrupole moment (field-independent basis, Debye-Ang):
   XX=             -9.4683   YY=             -9.4683   ZZ=            -11.0044
   XY=              0.0000   XZ=              0.0000   YZ=              0.0000
 Traceless Quadrupole moment (field-independent basis, Debye-Ang):
   XX=              0.5120   YY=              0.5120   ZZ=             -1.0240
   XY=              0.0000   XZ=              0.0000   YZ=              0.0000
 Octapole moment (field-independent basis, Debye-Ang**2):
  XXX=              0.9804  YYY=              0.0000  ZZZ=            -17.4697  XYY=             -0.9804
  XXY=              0.0000  XXZ=             -7.5874  XZZ=              0.0000  YZZ=              0.0000
  YYZ=             -7.5874  XYZ=              0.0000
 Hexadecapole moment (field-independent basis, Debye-Ang**3):
 XXXX=            -17.6454 YYYY=            -17.6454 ZZZZ=           -134.6314 XXXY=              0.0000
 XXXZ=             -0.0062 YYYX=              0.0000 YYYZ=              0.0000 ZZZX=              0.0000
 ZZZY=              0.0000 XXYY=             -5.8818 XXZZ=            -32.3818 YYZZ=            -32.3818
 XXYZ=              0.0000 YYXZ=              0.0062 ZZXY=              0.0000
 N-N= 1.311077723724D+01 E-N=-1.773185711215D+02  KE= 6.040657468801D+01
                          Isotropic Fermi Contact Couplings
        Atom                 a.u.       MegaHertz       Gauss      10(-4) cm-1
     1  C(13)              0.02872      32.28392      11.51970      10.76876
     2  H(1)              -0.00037      -1.67156      -0.59645      -0.55757
     3  H(1)              -0.01320     -59.00774     -21.05543     -19.68286
     4  H(1)              -0.01320     -59.00819     -21.05559     -19.68301
     5  H(1)              -0.01320     -59.00819     -21.05559     -19.68301
     6  H(1)               0.00272      12.17674       4.34497       4.06172
 --------------------------------------------------------
       Center         ----  Spin Dipole Couplings  ----
                      3XX-RR        3YY-RR        3ZZ-RR
 --------------------------------------------------------
     1   Atom       -0.592046     -0.592047      1.184093
     2   Atom       -0.007564     -0.007564      0.015128
     3   Atom        0.074212     -0.075271      0.001059
     4   Atom       -0.037900      0.036841      0.001059
     5   Atom       -0.037900      0.036841      0.001059
     6   Atom       -0.003020     -0.003020      0.006039
 --------------------------------------------------------
                        XY            XZ            YZ
 --------------------------------------------------------
     1   Atom        0.000000     -0.000001      0.000000
     2   Atom        0.000000      0.000000      0.000000
     3   Atom        0.000000     -0.000192      0.000000
     4   Atom        0.064728      0.000096      0.000167
     5   Atom       -0.064728      0.000096     -0.000167
     6   Atom        0.000000      0.000000      0.000000
 --------------------------------------------------------


 ---------------------------------------------------------------------------------
              Anisotropic Spin Dipole Couplings in Principal Axis System
 ---------------------------------------------------------------------------------

       Atom             a.u.   MegaHertz   Gauss  10(-4) cm-1        Axes

              Baa    -0.5920   -79.447   -28.349   -26.501  0.0000  1.0000  0.0000
     1 C(13)  Bbb    -0.5920   -79.447   -28.349   -26.501  1.0000  0.0000  0.0000
              Bcc     1.1841   158.894    56.697    53.001  0.0000  0.0000  1.0000
 
              Baa    -0.0076    -4.036    -1.440    -1.346  1.0000  0.0000  0.0000
     2 H(1)   Bbb    -0.0076    -4.036    -1.440    -1.346  0.0000  1.0000  0.0000
              Bcc     0.0151     8.072     2.880     2.692  0.0000  0.0000  1.0000
 
              Baa    -0.0753   -40.161   -14.330   -13.396  0.0000  1.0000  0.0000
     3 H(1)   Bbb     0.0011     0.565     0.201     0.188  0.0026  0.0000  1.0000
              Bcc     0.0742    39.596    14.129    13.208  1.0000  0.0000 -0.0026
 
              Baa    -0.0753   -40.161   -14.330   -13.396  0.8660 -0.5000  0.0000
     4 H(1)   Bbb     0.0011     0.565     0.201     0.188 -0.0013 -0.0023  1.0000
              Bcc     0.0742    39.596    14.129    13.208  0.5000  0.8660  0.0026
 
              Baa    -0.0753   -40.161   -14.330   -13.396  0.8660  0.5000  0.0000
     5 H(1)   Bbb     0.0011     0.565     0.201     0.188 -0.0013  0.0023  1.0000
              Bcc     0.0742    39.596    14.129    13.208 -0.5000  0.8660 -0.0026
 
              Baa    -0.0030    -1.611    -0.575    -0.537  1.0000  0.0000  0.0000
     6 H(1)   Bbb    -0.0030    -1.611    -0.575    -0.537  0.0000  1.0000  0.0000
              Bcc     0.0060     3.222     1.150     1.075  0.0000  0.0000  1.0000
 

 ---------------------------------------------------------------------------------

 No NMR shielding tensors so no spin-rotation constants.
 Leave Link  601 at Wed Nov  3 01:57:01 2010, MaxMem=  786432000 cpu:       3.9
 (Enter /share/apps/G09A02/g09/l9999.exe)
 1\1\GINC-COMPUTE-0-7\SP\ULC-BLYP\6-311+G(3df,2p)\C1H5(2)\WENXINZY\03-N
 ov-2010\0\\#p lc-blyp/6-311+g(3df,2p) nosymm scf=tight\\37 H2+CH3\\0,2
 \C\H,1,3.1091467\H,1,1.0792206,2,90.1928482\H,1,1.0792206,2,90.1928482
 ,3,120.,0\H,1,1.0792206,2,90.1928482,3,-120.,0\H,2,0.7433972,1,180.,3,
 0.,0\\Version=EM64L-G09RevA.02\HF=-40.8751786\S2=0.753547\S2-1=0.\S2A=
 0.750007\RMSD=8.137e-09\Dipole=-0.0000007,0.,-0.0244812\Quadrupole=0.3
 806598,0.3806633,-0.761323,0.,0.0000028,0.\PG=C03V [C3(H1H1C1),3SGV(H1
 )]\\@


 THE UNDERLYING PHYSICAL LAWS NECESSARY FOR THE 
 MATHEMATICAL THEORY OF A LARGE PART OF PHYSICS AND THE
 WHOLE OF CHEMISTRY ARE THUS COMPLETELY KNOWN, AND THE
 DIFFICULTY IS ONLY THAT THE EXACT APPLICATION OF THESE
 LAWS LEADS TO EQUATIONS MUCH TOO COMPLICATED 
 TO BE SOLUBLE.

                                        -- P. A. M. DIRAC, 1929
 Job cpu time:  0 days  0 hours  4 minutes 29.8 seconds.
 File lengths (MBytes):  RWF=      9 Int=      0 D2E=      0 Chk=      1 Scr=      1
 Normal termination of Gaussian 09 at Wed Nov  3 01:57:01 2010.
