 Entering Gaussian System, Link 0=/share/apps/G09A02/g09/g09
 Input=./.script12553/Job_H_CH4_33.com
 Output=./.script12553/Job_H_CH4_33.log
 Initial command:
 /share/apps/G09A02/g09/l1.exe /state/partition1/wenxinzy/scratch/Gau-15934.inp -scrdir=/state/partition1/wenxinzy/scratch/
 Default is to use a total of   8 processors:
                                8 via shared-memory
                                1 via Linda
 Entering Link 1 = /share/apps/G09A02/g09/l1.exe PID=     15935.
  
 Copyright (c) 1988,1990,1992,1993,1995,1998,2003,2009, Gaussian, Inc.
                  All Rights Reserved.
  
 This is part of the Gaussian(R) 09 program.  It is based on
 the Gaussian(R) 03 system (copyright 2003, Gaussian, Inc.),
 the Gaussian(R) 98 system (copyright 1998, Gaussian, Inc.),
 the Gaussian(R) 94 system (copyright 1995, Gaussian, Inc.),
 the Gaussian 92(TM) system (copyright 1992, Gaussian, Inc.),
 the Gaussian 90(TM) system (copyright 1990, Gaussian, Inc.),
 the Gaussian 88(TM) system (copyright 1988, Gaussian, Inc.),
 the Gaussian 86(TM) system (copyright 1986, Carnegie Mellon
 University), and the Gaussian 82(TM) system (copyright 1983,
 Carnegie Mellon University). Gaussian is a federally registered
 trademark of Gaussian, Inc.
  
 This software contains proprietary and confidential information,
 including trade secrets, belonging to Gaussian, Inc.
  
 This software is provided under written license and may be
 used, copied, transmitted, or stored only in accord with that
 written license.
  
 The following legend is applicable only to US Government
 contracts under FAR:
  
                    RESTRICTED RIGHTS LEGEND
  
 Use, reproduction and disclosure by the US Government is
 subject to restrictions as set forth in subparagraphs (a)
 and (c) of the Commercial Computer Software - Restricted
 Rights clause in FAR 52.227-19.
  
 Gaussian, Inc.
 340 Quinnipiac St., Bldg. 40, Wallingford CT 06492
  
  
 ---------------------------------------------------------------
 Warning -- This program may not be used in any manner that
 competes with the business of Gaussian, Inc. or will provide
 assistance to any competitor of Gaussian, Inc.  The licensee
 of this program is prohibited from giving any competitor of
 Gaussian, Inc. access to this program.  By using this program,
 the user acknowledges that Gaussian, Inc. is engaged in the
 business of creating and licensing software in the field of
 computational chemistry and represents and warrants to the
 licensee that it is not a competitor of Gaussian, Inc. and that
 it will not use this program in any manner prohibited above.
 ---------------------------------------------------------------
  

 Cite this work as:
 Gaussian 09, Revision A.02,
 M. J. Frisch, G. W. Trucks, H. B. Schlegel, G. E. Scuseria, 
 M. A. Robb, J. R. Cheeseman, G. Scalmani, V. Barone, B. Mennucci, 
 G. A. Petersson, H. Nakatsuji, M. Caricato, X. Li, H. P. Hratchian, 
 A. F. Izmaylov, J. Bloino, G. Zheng, J. L. Sonnenberg, M. Hada, 
 M. Ehara, K. Toyota, R. Fukuda, J. Hasegawa, M. Ishida, T. Nakajima, 
 Y. Honda, O. Kitao, H. Nakai, T. Vreven, J. A. Montgomery, Jr., 
 J. E. Peralta, F. Ogliaro, M. Bearpark, J. J. Heyd, E. Brothers, 
 K. N. Kudin, V. N. Staroverov, R. Kobayashi, J. Normand, 
 K. Raghavachari, A. Rendell, J. C. Burant, S. S. Iyengar, J. Tomasi, 
 M. Cossi, N. Rega, J. M. Millam, M. Klene, J. E. Knox, J. B. Cross, 
 V. Bakken, C. Adamo, J. Jaramillo, R. Gomperts, R. E. Stratmann, 
 O. Yazyev, A. J. Austin, R. Cammi, C. Pomelli, J. W. Ochterski, 
 R. L. Martin, K. Morokuma, V. G. Zakrzewski, G. A. Voth, 
 P. Salvador, J. J. Dannenberg, S. Dapprich, A. D. Daniels, 
 O. Farkas, J. B. Foresman, J. V. Ortiz, J. Cioslowski, 
 and D. J. Fox, Gaussian, Inc., Wallingford CT, 2009.
 
 ******************************************
 Gaussian 09:  EM64L-G09RevA.02 11-Jun-2009
                 3-Nov-2010 
 ******************************************
 %chk=/state/partition1/wenxinzy/scratch/H_CH4_33.chk
 %nproc=8
 Will use up to    8 processors via shared memory.
 %mem=6000mb
 -------------------------------------------
 #p lc-blyp/6-311+g(3df,2p) nosymm scf=tight
 -------------------------------------------
 1/38=1/1;
 2/12=2,15=1,17=6,18=5,40=1/2;
 3/5=4,6=6,7=216,11=2,16=1,25=1,30=1,74=1000402/1,2,3;
 4//1;
 5/5=2,32=2,38=5/2;
 6/7=2,8=2,9=2,10=2,28=1/1;
 99/5=1,9=1/99;
 Leave Link    1 at Wed Nov  3 01:26:29 2010, MaxMem=  786432000 cpu:       0.4
 (Enter /share/apps/G09A02/g09/l101.exe)
 --------
 34 H_CH4
 --------
 Symbolic Z-matrix:
 Charge =  0 Multiplicity = 2
 C
 H1                   C    R1
 H2                   C    R2       H1   A1
 H3                   C    R2       H1   A1       H2    120.     0
 H4                   C    R2       H1   A1       H2   -120.     0
 H5                   H1   R3       C     180.     H2    0.       0
       Variables:
  R1                    1.0893                   
  R2                    1.08932                  
  A1                  109.46964                  
  R3                    2.63653                  
 
 NAtoms=      6 NQM=      6 NQMF=      0 NMic=      0 NMicF=      0 NTot=      6.
                    Isotopes and Nuclear Properties:
 (Nuclear quadrupole moments (NQMom) in fm**2, nuclear magnetic moments (NMagM)
  in nuclear magnetons)

  Atom         1           2           3           4           5           6
 IAtWgt=          12           1           1           1           1           1
 AtmWgt=  12.0000000   1.0078250   1.0078250   1.0078250   1.0078250   1.0078250
 NucSpn=           0           1           1           1           1           1
 AtZEff=   0.0000000   0.0000000   0.0000000   0.0000000   0.0000000   0.0000000
 NQMom=    0.0000000   0.0000000   0.0000000   0.0000000   0.0000000   0.0000000
 NMagM=    0.0000000   2.7928460   2.7928460   2.7928460   2.7928460   2.7928460
 Leave Link  101 at Wed Nov  3 01:26:29 2010, MaxMem=  786432000 cpu:       1.2
 (Enter /share/apps/G09A02/g09/l202.exe)
                          Input orientation:                          
 ---------------------------------------------------------------------
 Center     Atomic      Atomic             Coordinates (Angstroms)
 Number     Number       Type             X           Y           Z
 ---------------------------------------------------------------------
      1          6           0        0.000000    0.000000    0.000000
      2          1           0        0.000000    0.000000    1.089300
      3          1           0        1.027028    0.000000   -0.363077
      4          1           0       -0.513514   -0.889432   -0.363077
      5          1           0       -0.513514    0.889432   -0.363077
      6          1           0        0.000000    0.000000    3.725832
 ---------------------------------------------------------------------
                    Distance matrix (angstroms):
                    1          2          3          4          5
     1  C    0.000000
     2  H    1.089300   0.000000
     3  H    1.089317   1.778816   0.000000
     4  H    1.089317   1.778816   1.778864   0.000000
     5  H    1.089317   1.778816   1.778864   1.778864   0.000000
     6  H    3.725832   2.636532   4.215918   4.215918   4.215918
                    6
     6  H    0.000000
 Symmetry turned off by external request.
 Stoichiometry    CH5(2)
 Framework group  C3V[C3(HHC),3SGV(H)]
 Deg. of freedom     4
 Full point group                 C3V     NOp   6
 Rotational constants (GHZ):    158.4698058     30.9064241     30.9064241
 Leave Link  202 at Wed Nov  3 01:26:29 2010, MaxMem=  786432000 cpu:       0.1
 (Enter /share/apps/G09A02/g09/l301.exe)
 Standard basis: 6-311+G(3df,2p) (5D, 7F)
 Ernie: Thresh=  0.10000D-02 Tol=  0.10000D-05 Strict=F.
 Integral buffers will be    131072 words long.
 Raffenetti 2 integral format.
 Two-electron integral symmetry is turned off.
    84 basis functions,   113 primitive gaussians,    90 cartesian basis functions
     6 alpha electrons        5 beta electrons
       nuclear repulsion energy        14.8733088499 Hartrees.
 IExCor=10402 DFT=T Ex=LC-B+HF Corr=LYP ExCW=0 ScaHFX=  1.000000
 ScaDFX=  1.000000  1.000000  1.000000  1.000000 ScalE2=  1.000000  1.000000
 IRadAn=      0 IRanWt=     -1 IRanGd=            0 ICorTp=0
  HFx wShort=  0.000000 wLong=  0.470000 cFull=  0.000000 cShort=  0.000000 cLong=  1.000000
  DFx wShort=  0.000000 wLong=  0.470000 cFull=  0.000000 cShort=  0.000000 cLong=  1.000000
 NAtoms=    6 NActive=    6 NUniq=    6 SFac= 7.50D-01 NAtFMM=   80 NAOKFM=F Big=F
 Leave Link  301 at Wed Nov  3 01:26:30 2010, MaxMem=  786432000 cpu:       0.8
 (Enter /share/apps/G09A02/g09/l302.exe)
 NPDir=0 NMtPBC=     1 NCelOv=     1 NCel=       1 NClECP=     1 NCelD=      1
         NCelK=      1 NCelE2=     1 NClLst=     1 CellRange=     0.0.
 One-electron integrals computed using PRISM.
 NBasis=    84 RedAO= T  NBF=    84
 NBsUse=    84 1.00D-06 NBFU=    84
 Precomputing XC quadrature grid using
 IXCGrd= 2 IRadAn=           0 IRanWt=          -1 IRanGd=           0 AccXCQ= 1.00D-10.
 NRdTot=     384 NPtTot=       48740 NUsed=       51519 NTot=       51551
 NSgBfM=    90    90    90    90    90 NAtAll=     6     6.
 Leave Link  302 at Wed Nov  3 01:26:30 2010, MaxMem=  786432000 cpu:       2.5
 (Enter /share/apps/G09A02/g09/l303.exe)
 DipDrv:  MaxL=1.
 Leave Link  303 at Wed Nov  3 01:26:30 2010, MaxMem=  786432000 cpu:       0.4
 (Enter /share/apps/G09A02/g09/l401.exe)
 Harris functional with IExCor=10402 diagonalized for initial guess.
 ExpMin= 4.38D-02 ExpMax= 4.56D+03 ExpMxC= 6.82D+02 IAcc=2 IRadAn=         0 AccDes= 0.00D+00
 HarFok:  IExCor=10402 AccDes= 0.00D+00 IRadAn=         0 IDoV= 1
 ScaDFX=  1.000000  1.000000  1.000000  1.000000
 FoFCou: FMM=F IPFlag=           0 FMFlag=      100000 FMFlg1=           0
         NFxFlg=           0 DoJE=T BraDBF=F KetDBF=T FulRan=T
         Omega=  0.000000  0.000000  1.000000  0.000000  0.000000 ICntrl=     500 IOpCl=  0
         NMat0=    1 NMatS0=    1 NMatT0=    0 NMatD0=    1 NMtDS0=    0 NMtDT0=    0
         I1Cent=           4 NGrid=           0.
 Symmetry not used in FoFCou.
 Harris En= -38.5634869710265    
 Initial guess <Sx>= 0.0000 <Sy>= 0.0000 <Sz>= 0.5000 <S**2>= 0.7500 S= 0.5000
 Leave Link  401 at Wed Nov  3 01:26:31 2010, MaxMem=  786432000 cpu:       3.6
 (Enter /share/apps/G09A02/g09/l502.exe)
 UHF open shell SCF:
 Requested convergence on RMS density matrix=1.00D-08 within 128 cycles.
 Requested convergence on MAX density matrix=1.00D-06.
 Requested convergence on             energy=1.00D-06.
 No special actions if energy rises.
 Using DIIS extrapolation, IDIIS=  1040.
 Two-electron integral symmetry not used.
        51452 words used for storage of precomputed grid.
 IEnd=       95170 IEndB=       95170 NGot=   786432000 MDV=   786361661
 LenX=   786361661 LenY=   786353120
 Fock matrices will be formed incrementally for  20 cycles.

 Cycle   1  Pass 1  IDiag  1:
 FoFJK:  IHMeth= 1 ICntrl=     0 DoSepK=T KAlg= 1 I1Cent= 0 FoldK=F
 FoFCou: FMM=F IPFlag=           0 FMFlag=      100000 FMFlg1=           0
         NFxFlg=           0 DoJE=T BraDBF=F KetDBF=F FulRan=T
         Omega=  0.000000  0.000000  1.000000  0.000000  0.000000 ICntrl=     500 IOpCl=  0
         NMat0=    1 NMatS0=    1 NMatT0=    0 NMatD0=    1 NMtDS0=    0 NMtDT0=    0
         I1Cent=           0 NGrid=           0.
 Symmetry not used in FoFCou.
 E= -40.7989729053463    
 DIIS: error= 3.10D-02 at cycle   1 NSaved=   1.
 NSaved= 1 IEnMin= 1 EnMin= -40.7989729053463     IErMin= 1 ErrMin= 3.10D-02
 ErrMax= 3.10D-02 EMaxC= 1.00D-01 BMatC= 2.56D-01 BMatP= 2.56D-01
 IDIUse=3 WtCom= 6.90D-01 WtEn= 3.10D-01
 Coeff-Com:  0.100D+01
 Coeff-En:   0.100D+01
 Coeff:      0.100D+01
 Gap=     0.513 Goal=   None    Shift=    0.000
 Gap=     0.350 Goal=   None    Shift=    0.000
 GapD=    0.350 DampG=1.000 DampE=0.500 DampFc=0.5000 IDamp=-1.
 Damping current iteration by 5.00D-01
 RMSDP=4.66D-03 MaxDP=1.78D-01              OVMax= 1.60D-01

 Cycle   2  Pass 1  IDiag  1:
 RMSU=  1.80D-03    CP:  9.04D-01
 FoFJK:  IHMeth= 1 ICntrl=     0 DoSepK=T KAlg= 1 I1Cent= 0 FoldK=F
 E= -40.8410023902049     Delta-E=       -0.042029484859 Rises=F Damp=T
 DIIS: error= 1.16D-02 at cycle   2 NSaved=   2.
 NSaved= 2 IEnMin= 2 EnMin= -40.8410023902049     IErMin= 2 ErrMin= 1.16D-02
 ErrMax= 1.16D-02 EMaxC= 1.00D-01 BMatC= 2.18D-02 BMatP= 2.56D-01
 IDIUse=3 WtCom= 8.84D-01 WtEn= 1.16D-01
 Coeff-Com: -0.222D+00 0.122D+01
 Coeff-En:   0.000D+00 0.100D+01
 Coeff:     -0.196D+00 0.120D+01
 Gap=     0.564 Goal=   None    Shift=    0.000
 Gap=     0.470 Goal=   None    Shift=    0.000
 RMSDP=2.51D-03 MaxDP=1.12D-01 DE=-4.20D-02 OVMax= 4.57D-02

 Cycle   3  Pass 1  IDiag  1:
 RMSU=  8.95D-04    CP:  8.20D-01  2.00D+00
 FoFJK:  IHMeth= 1 ICntrl=     0 DoSepK=T KAlg= 1 I1Cent= 0 FoldK=F
 E= -40.8826575290817     Delta-E=       -0.041655138877 Rises=F Damp=F
 DIIS: error= 3.28D-03 at cycle   3 NSaved=   3.
 NSaved= 3 IEnMin= 3 EnMin= -40.8826575290817     IErMin= 3 ErrMin= 3.28D-03
 ErrMax= 3.28D-03 EMaxC= 1.00D-01 BMatC= 9.53D-04 BMatP= 2.18D-02
 IDIUse=3 WtCom= 9.67D-01 WtEn= 3.28D-02
 Coeff-Com:  0.411D-01-0.287D+00 0.125D+01
 Coeff-En:   0.000D+00 0.000D+00 0.100D+01
 Coeff:      0.398D-01-0.278D+00 0.124D+01
 Gap=     0.515 Goal=   None    Shift=    0.000
 Gap=     0.502 Goal=   None    Shift=    0.000
 RMSDP=6.13D-04 MaxDP=3.01D-02 DE=-4.17D-02 OVMax= 3.68D-02

 Cycle   4  Pass 1  IDiag  1:
 RMSU=  2.85D-04    CP:  8.04D-01  2.18D+00  1.30D+00
 FoFJK:  IHMeth= 1 ICntrl=     0 DoSepK=T KAlg= 1 I1Cent= 0 FoldK=F
 E= -40.8835928255378     Delta-E=       -0.000935296456 Rises=F Damp=F
 DIIS: error= 4.40D-04 at cycle   4 NSaved=   4.
 NSaved= 4 IEnMin= 4 EnMin= -40.8835928255378     IErMin= 4 ErrMin= 4.40D-04
 ErrMax= 4.40D-04 EMaxC= 1.00D-01 BMatC= 2.33D-05 BMatP= 9.53D-04
 IDIUse=3 WtCom= 9.96D-01 WtEn= 4.40D-03
 Coeff-Com: -0.420D-02-0.267D-02-0.108D+00 0.112D+01
 Coeff-En:   0.000D+00 0.000D+00 0.000D+00 0.100D+01
 Coeff:     -0.418D-02-0.266D-02-0.108D+00 0.111D+01
 Gap=     0.513 Goal=   None    Shift=    0.000
 Gap=     0.502 Goal=   None    Shift=    0.000
 RMSDP=9.08D-05 MaxDP=4.93D-03 DE=-9.35D-04 OVMax= 5.88D-03

 Cycle   5  Pass 1  IDiag  1:
 RMSU=  3.60D-05    CP:  8.02D-01  2.20D+00  1.33D+00  1.20D+00
 FoFJK:  IHMeth= 1 ICntrl=     0 DoSepK=T KAlg= 1 I1Cent= 0 FoldK=F
 E= -40.8836136476999     Delta-E=       -0.000020822162 Rises=F Damp=F
 DIIS: error= 6.06D-05 at cycle   5 NSaved=   5.
 NSaved= 5 IEnMin= 5 EnMin= -40.8836136476999     IErMin= 5 ErrMin= 6.06D-05
 ErrMax= 6.06D-05 EMaxC= 1.00D-01 BMatC= 2.75D-07 BMatP= 2.33D-05
 IDIUse=1 WtCom= 1.00D+00 WtEn= 0.00D+00
 Coeff-Com:  0.645D-03 0.314D-02 0.131D-01-0.255D+00 0.124D+01
 Coeff:      0.645D-03 0.314D-02 0.131D-01-0.255D+00 0.124D+01
 Gap=     0.513 Goal=   None    Shift=    0.000
 Gap=     0.502 Goal=   None    Shift=    0.000
 RMSDP=1.76D-05 MaxDP=7.14D-04 DE=-2.08D-05 OVMax= 4.83D-04

 Cycle   6  Pass 1  IDiag  1:
 RMSU=  2.04D-06    CP:  8.02D-01  2.20D+00  1.33D+00  1.21D+00  1.44D+00
 FoFJK:  IHMeth= 1 ICntrl=     0 DoSepK=T KAlg= 1 I1Cent= 0 FoldK=F
 E= -40.8836139122756     Delta-E=       -0.000000264576 Rises=F Damp=F
 DIIS: error= 1.19D-05 at cycle   6 NSaved=   6.
 NSaved= 6 IEnMin= 6 EnMin= -40.8836139122756     IErMin= 6 ErrMin= 1.19D-05
 ErrMax= 1.19D-05 EMaxC= 1.00D-01 BMatC= 1.37D-08 BMatP= 2.75D-07
 IDIUse=1 WtCom= 1.00D+00 WtEn= 0.00D+00
 Coeff-Com: -0.536D-04-0.885D-03-0.183D-02 0.542D-01-0.375D+00 0.132D+01
 Coeff:     -0.536D-04-0.885D-03-0.183D-02 0.542D-01-0.375D+00 0.132D+01
 Gap=     0.513 Goal=   None    Shift=    0.000
 Gap=     0.502 Goal=   None    Shift=    0.000
 RMSDP=3.38D-06 MaxDP=1.30D-04 DE=-2.65D-07 OVMax= 1.03D-04

 Cycle   7  Pass 1  IDiag  1:
 RMSU=  4.87D-07    CP:  8.02D-01  2.20D+00  1.33D+00  1.21D+00  1.51D+00
                    CP:  1.49D+00
 FoFJK:  IHMeth= 1 ICntrl=     0 DoSepK=T KAlg= 1 I1Cent= 0 FoldK=F
 E= -40.8836139260998     Delta-E=       -0.000000013824 Rises=F Damp=F
 DIIS: error= 4.25D-06 at cycle   7 NSaved=   7.
 NSaved= 7 IEnMin= 7 EnMin= -40.8836139260998     IErMin= 7 ErrMin= 4.25D-06
 ErrMax= 4.25D-06 EMaxC= 1.00D-01 BMatC= 1.14D-09 BMatP= 1.37D-08
 IDIUse=1 WtCom= 1.00D+00 WtEn= 0.00D+00
 Coeff-Com: -0.413D-04-0.592D-04-0.535D-03 0.768D-02-0.222D-01-0.172D+00
 Coeff-Com:  0.119D+01
 Coeff:     -0.413D-04-0.592D-04-0.535D-03 0.768D-02-0.222D-01-0.172D+00
 Coeff:      0.119D+01
 Gap=     0.513 Goal=   None    Shift=    0.000
 Gap=     0.502 Goal=   None    Shift=    0.000
 RMSDP=4.44D-07 MaxDP=1.01D-05 DE=-1.38D-08 OVMax= 2.41D-05

 Cycle   8  Pass 1  IDiag  1:
 RMSU=  1.17D-07    CP:  8.02D-01  2.20D+00  1.33D+00  1.21D+00  1.52D+00
                    CP:  1.60D+00  1.38D+00
 FoFJK:  IHMeth= 1 ICntrl=     0 DoSepK=T KAlg= 1 I1Cent= 0 FoldK=F
 E= -40.8836139270786     Delta-E=       -0.000000000979 Rises=F Damp=F
 DIIS: error= 1.65D-06 at cycle   8 NSaved=   8.
 NSaved= 8 IEnMin= 8 EnMin= -40.8836139270786     IErMin= 8 ErrMin= 1.65D-06
 ErrMax= 1.65D-06 EMaxC= 1.00D-01 BMatC= 1.57D-10 BMatP= 1.14D-09
 IDIUse=1 WtCom= 1.00D+00 WtEn= 0.00D+00
 Coeff-Com:  0.190D-04 0.130D-03 0.460D-03-0.973D-02 0.551D-01-0.103D+00
 Coeff-Com: -0.372D+00 0.143D+01
 Coeff:      0.190D-04 0.130D-03 0.460D-03-0.973D-02 0.551D-01-0.103D+00
 Coeff:     -0.372D+00 0.143D+01
 Gap=     0.513 Goal=   None    Shift=    0.000
 Gap=     0.502 Goal=   None    Shift=    0.000
 RMSDP=1.72D-07 MaxDP=3.39D-06 DE=-9.79D-10 OVMax= 1.03D-05

 Cycle   9  Pass 1  IDiag  1:
 RMSU=  2.85D-08    CP:  8.02D-01  2.20D+00  1.33D+00  1.21D+00  1.52D+00
                    CP:  1.62D+00  1.54D+00  1.76D+00
 FoFJK:  IHMeth= 1 ICntrl=     0 DoSepK=T KAlg= 1 I1Cent= 0 FoldK=F
 E= -40.8836139272175     Delta-E=       -0.000000000139 Rises=F Damp=F
 DIIS: error= 3.70D-07 at cycle   9 NSaved=   9.
 NSaved= 9 IEnMin= 9 EnMin= -40.8836139272175     IErMin= 9 ErrMin= 3.70D-07
 ErrMax= 3.70D-07 EMaxC= 1.00D-01 BMatC= 7.72D-12 BMatP= 1.57D-10
 IDIUse=1 WtCom= 1.00D+00 WtEn= 0.00D+00
 Coeff-Com:  0.548D-08-0.282D-04-0.791D-04 0.189D-02-0.120D-01 0.397D-01
 Coeff-Com: -0.178D-02-0.339D+00 0.131D+01
 Coeff:      0.548D-08-0.282D-04-0.791D-04 0.189D-02-0.120D-01 0.397D-01
 Coeff:     -0.178D-02-0.339D+00 0.131D+01
 Gap=     0.513 Goal=   None    Shift=    0.000
 Gap=     0.502 Goal=   None    Shift=    0.000
 RMSDP=4.15D-08 MaxDP=1.01D-06 DE=-1.39D-10 OVMax= 2.04D-06

 Cycle  10  Pass 1  IDiag  1:
 RMSU=  1.06D-08    CP:  8.02D-01  2.20D+00  1.33D+00  1.21D+00  1.52D+00
                    CP:  1.62D+00  1.56D+00  1.95D+00  1.44D+00
 FoFJK:  IHMeth= 1 ICntrl=     0 DoSepK=T KAlg= 1 I1Cent= 0 FoldK=F
 E= -40.8836139272252     Delta-E=       -0.000000000008 Rises=F Damp=F
 DIIS: error= 6.97D-08 at cycle  10 NSaved=  10.
 NSaved=10 IEnMin=10 EnMin= -40.8836139272252     IErMin=10 ErrMin= 6.97D-08
 ErrMax= 6.97D-08 EMaxC= 1.00D-01 BMatC= 3.92D-13 BMatP= 7.72D-12
 IDIUse=1 WtCom= 1.00D+00 WtEn= 0.00D+00
 Coeff-Com: -0.851D-06 0.105D-04 0.201D-04-0.616D-03 0.413D-02-0.170D-01
 Coeff-Com:  0.169D-01 0.117D+00-0.668D+00 0.155D+01
 Coeff:     -0.851D-06 0.105D-04 0.201D-04-0.616D-03 0.413D-02-0.170D-01
 Coeff:      0.169D-01 0.117D+00-0.668D+00 0.155D+01
 Gap=     0.513 Goal=   None    Shift=    0.000
 Gap=     0.502 Goal=   None    Shift=    0.000
 RMSDP=8.27D-09 MaxDP=1.54D-07 DE=-7.74D-12 OVMax= 4.24D-07

 SCF Done:  E(ULC-B+HF-LYP) =  -40.8836139272     A.U. after   10 cycles
             Convg  =    0.8266D-08             -V/T =  2.0051
 <Sx>= 0.0000 <Sy>= 0.0000 <Sz>= 0.5000 <S**2>= 0.7501 S= 0.5000
 <L.S>= 0.000000000000E+00
 KE= 4.067641309967D+01 PE=-1.238991538236D+02 EE= 2.746581794679D+01
 Annihilation of the first spin contaminant:
 S**2 before annihilation     0.7501,   after     0.7500
 Leave Link  502 at Wed Nov  3 01:27:00 2010, MaxMem=  786432000 cpu:     232.6
 (Enter /share/apps/G09A02/g09/l601.exe)
 Copying SCF densities to generalized density rwf, IOpCl= 1 IROHF=0.

 **********************************************************************

            Population analysis using the SCF density.

 **********************************************************************

 Alpha  occ. eigenvalues --  -10.11334  -0.85960  -0.52764  -0.52528  -0.52528
 Alpha  occ. eigenvalues --   -0.44937
 Alpha virt. eigenvalues --    0.06361   0.09630   0.09630   0.10849   0.22664
 Alpha virt. eigenvalues --    0.22664   0.23498   0.27162   0.35995   0.36803
 Alpha virt. eigenvalues --    0.36803   0.41858   0.41858   0.43619   0.64567
 Alpha virt. eigenvalues --    0.64676   0.64676   0.69109   0.69109   0.71918
 Alpha virt. eigenvalues --    0.74178   0.80124   0.80275   0.80275   0.97040
 Alpha virt. eigenvalues --    0.99179   0.99227   0.99227   1.10256   1.10256
 Alpha virt. eigenvalues --    1.25230   1.25230   1.27720   1.40971   1.40971
 Alpha virt. eigenvalues --    1.43039   1.68970   2.06613   2.06613   2.07830
 Alpha virt. eigenvalues --    2.07830   2.08092   2.34637   2.52058   2.78770
 Alpha virt. eigenvalues --    2.78770   2.80585   3.08989   3.08989   3.09011
 Alpha virt. eigenvalues --    3.43916   3.43916   3.44967   3.64697   3.65174
 Alpha virt. eigenvalues --    3.65174   3.80371   3.80371   3.91765   4.07901
 Alpha virt. eigenvalues --    4.31080   4.31080   4.32737   4.35654   4.35654
 Alpha virt. eigenvalues --    4.58741   4.58743   4.58743   5.01310   5.89367
 Alpha virt. eigenvalues --    5.89371   5.89371   7.30299   7.30299   7.91473
 Alpha virt. eigenvalues --    7.91473   7.92226  24.29287
  Beta  occ. eigenvalues --  -10.11321  -0.85920  -0.52521  -0.52519  -0.52519
  Beta virt. eigenvalues --   -0.02342   0.06667   0.09530   0.09530   0.11289
  Beta virt. eigenvalues --    0.22652   0.22652   0.23857   0.27183   0.36790
  Beta virt. eigenvalues --    0.36790   0.39297   0.41838   0.41838   0.46837
  Beta virt. eigenvalues --    0.64722   0.64722   0.65500   0.71967   0.73270
  Beta virt. eigenvalues --    0.73270   0.74992   0.80173   0.80274   0.80274
  Beta virt. eigenvalues --    0.98704   0.99179   0.99223   0.99223   1.10253
  Beta virt. eigenvalues --    1.10253   1.25225   1.25225   1.27853   1.40974
  Beta virt. eigenvalues --    1.40974   1.42904   1.68944   2.06627   2.06627
  Beta virt. eigenvalues --    2.07850   2.07850   2.08154   2.52085   2.55540
  Beta virt. eigenvalues --    2.78782   2.78782   2.80622   3.09016   3.09019
  Beta virt. eigenvalues --    3.09019   3.43930   3.43930   3.44966   3.64967
  Beta virt. eigenvalues --    3.65228   3.65228   3.95887   3.95887   4.06483
  Beta virt. eigenvalues --    4.07921   4.31083   4.31083   4.33049   4.35653
  Beta virt. eigenvalues --    4.35653   4.58745   4.58750   4.58750   5.01334
  Beta virt. eigenvalues --    5.89379   5.89379   5.89388   7.30338   7.30338
  Beta virt. eigenvalues --    7.91496   7.91496   7.92278  24.29304
          Condensed to atoms (all electrons):
              1          2          3          4          5          6
     1  C    5.067225   0.395668   0.401689   0.401689   0.401689   0.002773
     2  H    0.395668   0.488851  -0.017361  -0.017361  -0.017361  -0.001561
     3  H    0.401689  -0.017361   0.483751  -0.017173  -0.017173  -0.000064
     4  H    0.401689  -0.017361  -0.017173   0.483750  -0.017173  -0.000064
     5  H    0.401689  -0.017361  -0.017173  -0.017173   0.483750  -0.000064
     6  H    0.002773  -0.001561  -0.000064  -0.000064  -0.000064   0.996374
 Mulliken atomic charges:
              1
     1  C   -0.670731
     2  H    0.169124
     3  H    0.166333
     4  H    0.166333
     5  H    0.166333
     6  H    0.002608
 Sum of Mulliken atomic charges =   0.00000
 Mulliken charges with hydrogens summed into heavy atoms:
              1
     1  C    0.000000
 Sum of Mulliken charges with hydrogens summed into heavy atoms =   0.00000
          Atomic-Atomic Spin Densities.
              1          2          3          4          5          6
     1  C    0.015394   0.000808  -0.000333  -0.000333  -0.000333   0.002065
     2  H    0.000808  -0.012668   0.000816   0.000816   0.000816  -0.002795
     3  H   -0.000333   0.000816  -0.000179  -0.000177  -0.000177  -0.000042
     4  H   -0.000333   0.000816  -0.000177  -0.000179  -0.000177  -0.000042
     5  H   -0.000333   0.000816  -0.000177  -0.000177  -0.000179  -0.000042
     6  H    0.002065  -0.002795  -0.000042  -0.000042  -0.000042   0.996068
 Mulliken atomic spin densities:
              1
     1  C    0.017270
     2  H   -0.012207
     3  H   -0.000092
     4  H   -0.000092
     5  H   -0.000092
     6  H    0.995213
 Sum of Mulliken atomic spin densities =   1.00000
 Electronic spatial extent (au):  <R**2>=             88.6549
 Charge=              0.0000 electrons
 Dipole moment (field-independent basis, Debye):
    X=              0.0000    Y=              0.0000    Z=              0.0076  Tot=              0.0076
 Quadrupole moment (field-independent basis, Debye-Ang):
   XX=             -9.9496   YY=             -9.9496   ZZ=             -9.8694
   XY=              0.0000   XZ=              0.0000   YZ=              0.0000
 Traceless Quadrupole moment (field-independent basis, Debye-Ang):
   XX=             -0.0267   YY=             -0.0267   ZZ=              0.0535
   XY=              0.0000   XZ=              0.0000   YZ=              0.0000
 Octapole moment (field-independent basis, Debye-Ang**2):
  XXX=              0.6628  YYY=              0.0000  ZZZ=            -14.5720  XYY=             -0.6628
  XXY=              0.0000  XXZ=             -5.7983  XZZ=              0.0000  YZZ=              0.0000
  YYZ=             -5.7983  XYZ=              0.0000
 Hexadecapole moment (field-independent basis, Debye-Ang**3):
 XXXX=            -18.4942 YYYY=            -18.4942 ZZZZ=           -134.6800 XXXY=              0.0000
 XXXZ=             -0.4218 YYYX=              0.0000 YYYZ=              0.0000 ZZZX=              0.0000
 ZZZY=              0.0000 XXYY=             -6.1647 XXZZ=            -26.2856 YYZZ=            -26.2856
 XXYZ=              0.0000 YYXZ=              0.4218 ZZXY=              0.0000
 N-N= 1.487330884993D+01 E-N=-1.846257379432D+02  KE= 6.076627180803D+01
                          Isotropic Fermi Contact Couplings
        Atom                 a.u.       MegaHertz       Gauss      10(-4) cm-1
     1  C(13)              0.00278       3.12492       1.11505       1.04236
     2  H(1)               0.00030       1.33101       0.47494       0.44398
     3  H(1)              -0.00003      -0.12668      -0.04520      -0.04226
     4  H(1)              -0.00003      -0.12667      -0.04520      -0.04225
     5  H(1)              -0.00003      -0.12667      -0.04520      -0.04225
     6  H(1)               0.28622    1279.35126     456.50433     426.74565
 --------------------------------------------------------
       Center         ----  Spin Dipole Couplings  ----
                      3XX-RR        3YY-RR        3ZZ-RR
 --------------------------------------------------------
     1   Atom       -0.007587     -0.007587      0.015174
     2   Atom       -0.009234     -0.009234      0.018469
     3   Atom       -0.001116     -0.002417      0.003533
     4   Atom       -0.002092     -0.001441      0.003533
     5   Atom       -0.002092     -0.001441      0.003533
     6   Atom        0.000107      0.000107     -0.000214
 --------------------------------------------------------
                        XY            XZ            YZ
 --------------------------------------------------------
     1   Atom        0.000000      0.000000      0.000000
     2   Atom        0.000000      0.000000      0.000000
     3   Atom        0.000000     -0.001632      0.000000
     4   Atom        0.000563      0.000816      0.001414
     5   Atom       -0.000563      0.000816     -0.001414
     6   Atom        0.000000      0.000000      0.000000
 --------------------------------------------------------


 ---------------------------------------------------------------------------------
              Anisotropic Spin Dipole Couplings in Principal Axis System
 ---------------------------------------------------------------------------------

       Atom             a.u.   MegaHertz   Gauss  10(-4) cm-1        Axes

              Baa    -0.0076    -1.018    -0.363    -0.340  0.0000  1.0000  0.0000
     1 C(13)  Bbb    -0.0076    -1.018    -0.363    -0.340  1.0000  0.0000  0.0000
              Bcc     0.0152     2.036     0.727     0.679  0.0000  0.0000  1.0000
 
              Baa    -0.0092    -4.927    -1.758    -1.643  1.0000  0.0000  0.0000
     2 H(1)   Bbb    -0.0092    -4.927    -1.758    -1.643  0.0000  1.0000  0.0000
              Bcc     0.0185     9.854     3.516     3.287  0.0000  0.0000  1.0000
 
              Baa    -0.0024    -1.290    -0.460    -0.430  0.0000  1.0000  0.0000
     3 H(1)   Bbb    -0.0016    -0.871    -0.311    -0.290  0.9535  0.0000  0.3014
              Bcc     0.0040     2.160     0.771     0.721 -0.3014  0.0000  0.9535
 
              Baa    -0.0024    -1.290    -0.460    -0.430  0.8660 -0.5000  0.0000
     4 H(1)   Bbb    -0.0016    -0.871    -0.311    -0.290  0.4768  0.8258 -0.3014
              Bcc     0.0040     2.160     0.771     0.721  0.1507  0.2610  0.9535
 
              Baa    -0.0024    -1.290    -0.460    -0.430  0.8660  0.5000  0.0000
     5 H(1)   Bbb    -0.0016    -0.871    -0.311    -0.290 -0.4768  0.8258  0.3014
              Bcc     0.0040     2.160     0.771     0.721  0.1507 -0.2610  0.9535
 
              Baa    -0.0002    -0.114    -0.041    -0.038  0.0000  0.0000  1.0000
     6 H(1)   Bbb     0.0001     0.057     0.020     0.019  1.0000  0.0000  0.0000
              Bcc     0.0001     0.057     0.020     0.019  0.0000  1.0000  0.0000
 

 ---------------------------------------------------------------------------------

 No NMR shielding tensors so no spin-rotation constants.
 Leave Link  601 at Wed Nov  3 01:27:00 2010, MaxMem=  786432000 cpu:       3.9
 (Enter /share/apps/G09A02/g09/l9999.exe)
 1\1\GINC-COMPUTE-0-7\SP\ULC-BLYP\6-311+G(3df,2p)\C1H5(2)\WENXINZY\03-N
 ov-2010\0\\#p lc-blyp/6-311+g(3df,2p) nosymm scf=tight\\34 H_CH4\\0,2\
 C\H,1,1.0893004\H,1,1.0893167,2,109.46964\H,1,1.0893167,2,109.46964,3,
 120.,0\H,1,1.0893167,2,109.46964,3,-120.,0\H,2,2.6365319,1,180.,3,0.,0
 \\Version=EM64L-G09RevA.02\HF=-40.8836139\S2=0.750057\S2-1=0.\S2A=0.75
 \RMSD=8.266e-09\Dipole=0.0000003,0.,0.0029715\Quadrupole=-0.0198801,-0
 .0198776,0.0397577,0.,-0.0000006,0.\PG=C03V [C3(H1H1C1),3SGV(H1)]\\@


 TERENCE, THIS IS STUPID STUFF:
 YOU EAT YOUR VICTUALS FAST ENOUGH;
 THERE CAN'T BE MUCH AMISS, 'TIS CLEAR
 TO SEE THE RATE YOU DRINK YOUR BEER.
 BUT OH, GOOD LORD, THE VERSE YOU MAKE,
 IT GIVES A CHAP THE BELLY-ACHE.
 THE COW, THE OLD COW, SHE IS DEAD;
 IT SLEEPS WELL, THE HORNED HEAD:
 WE POOR LADS, 'TIS OUR TURN NOW
 TO HEAR SUCH TUNES AS KILLED THE COW.
 PRETTY FRIENDSHIP 'TIS TO RHYME
 YOUR FRIENDS TO DEATH BEFORE THEIR TIME.
 MOPING, MELANCHOLY MAD:
 COME PIPE A TUNE TO DANCE TO, LAD.

     -- A. E. HOUSMAN
 Job cpu time:  0 days  0 hours  4 minutes  6.6 seconds.
 File lengths (MBytes):  RWF=      9 Int=      0 D2E=      0 Chk=      1 Scr=      1
 Normal termination of Gaussian 09 at Wed Nov  3 01:27:00 2010.
