 Entering Gaussian System, Link 0=/share/apps/G09A02/g09/g09
 Input=./.script12553/Job_H_CH4_18.com
 Output=./.script12553/Job_H_CH4_18.log
 Initial command:
 /share/apps/G09A02/g09/l1.exe /state/partition1/wenxinzy/scratch/Gau-14412.inp -scrdir=/state/partition1/wenxinzy/scratch/
 Default is to use a total of   8 processors:
                                8 via shared-memory
                                1 via Linda
 Entering Link 1 = /share/apps/G09A02/g09/l1.exe PID=     14413.
  
 Copyright (c) 1988,1990,1992,1993,1995,1998,2003,2009, Gaussian, Inc.
                  All Rights Reserved.
  
 This is part of the Gaussian(R) 09 program.  It is based on
 the Gaussian(R) 03 system (copyright 2003, Gaussian, Inc.),
 the Gaussian(R) 98 system (copyright 1998, Gaussian, Inc.),
 the Gaussian(R) 94 system (copyright 1995, Gaussian, Inc.),
 the Gaussian 92(TM) system (copyright 1992, Gaussian, Inc.),
 the Gaussian 90(TM) system (copyright 1990, Gaussian, Inc.),
 the Gaussian 88(TM) system (copyright 1988, Gaussian, Inc.),
 the Gaussian 86(TM) system (copyright 1986, Carnegie Mellon
 University), and the Gaussian 82(TM) system (copyright 1983,
 Carnegie Mellon University). Gaussian is a federally registered
 trademark of Gaussian, Inc.
  
 This software contains proprietary and confidential information,
 including trade secrets, belonging to Gaussian, Inc.
  
 This software is provided under written license and may be
 used, copied, transmitted, or stored only in accord with that
 written license.
  
 The following legend is applicable only to US Government
 contracts under FAR:
  
                    RESTRICTED RIGHTS LEGEND
  
 Use, reproduction and disclosure by the US Government is
 subject to restrictions as set forth in subparagraphs (a)
 and (c) of the Commercial Computer Software - Restricted
 Rights clause in FAR 52.227-19.
  
 Gaussian, Inc.
 340 Quinnipiac St., Bldg. 40, Wallingford CT 06492
  
  
 ---------------------------------------------------------------
 Warning -- This program may not be used in any manner that
 competes with the business of Gaussian, Inc. or will provide
 assistance to any competitor of Gaussian, Inc.  The licensee
 of this program is prohibited from giving any competitor of
 Gaussian, Inc. access to this program.  By using this program,
 the user acknowledges that Gaussian, Inc. is engaged in the
 business of creating and licensing software in the field of
 computational chemistry and represents and warrants to the
 licensee that it is not a competitor of Gaussian, Inc. and that
 it will not use this program in any manner prohibited above.
 ---------------------------------------------------------------
  

 Cite this work as:
 Gaussian 09, Revision A.02,
 M. J. Frisch, G. W. Trucks, H. B. Schlegel, G. E. Scuseria, 
 M. A. Robb, J. R. Cheeseman, G. Scalmani, V. Barone, B. Mennucci, 
 G. A. Petersson, H. Nakatsuji, M. Caricato, X. Li, H. P. Hratchian, 
 A. F. Izmaylov, J. Bloino, G. Zheng, J. L. Sonnenberg, M. Hada, 
 M. Ehara, K. Toyota, R. Fukuda, J. Hasegawa, M. Ishida, T. Nakajima, 
 Y. Honda, O. Kitao, H. Nakai, T. Vreven, J. A. Montgomery, Jr., 
 J. E. Peralta, F. Ogliaro, M. Bearpark, J. J. Heyd, E. Brothers, 
 K. N. Kudin, V. N. Staroverov, R. Kobayashi, J. Normand, 
 K. Raghavachari, A. Rendell, J. C. Burant, S. S. Iyengar, J. Tomasi, 
 M. Cossi, N. Rega, J. M. Millam, M. Klene, J. E. Knox, J. B. Cross, 
 V. Bakken, C. Adamo, J. Jaramillo, R. Gomperts, R. E. Stratmann, 
 O. Yazyev, A. J. Austin, R. Cammi, C. Pomelli, J. W. Ochterski, 
 R. L. Martin, K. Morokuma, V. G. Zakrzewski, G. A. Voth, 
 P. Salvador, J. J. Dannenberg, S. Dapprich, A. D. Daniels, 
 O. Farkas, J. B. Foresman, J. V. Ortiz, J. Cioslowski, 
 and D. J. Fox, Gaussian, Inc., Wallingford CT, 2009.
 
 ******************************************
 Gaussian 09:  EM64L-G09RevA.02 11-Jun-2009
                 3-Nov-2010 
 ******************************************
 %chk=/state/partition1/wenxinzy/scratch/H_CH4_18.chk
 %nproc=8
 Will use up to    8 processors via shared memory.
 %mem=6000mb
 -------------------------------------------
 #p lc-blyp/6-311+g(3df,2p) nosymm scf=tight
 -------------------------------------------
 1/38=1/1;
 2/12=2,15=1,17=6,18=5,40=1/2;
 3/5=4,6=6,7=216,11=2,16=1,25=1,30=1,74=1000402/1,2,3;
 4//1;
 5/5=2,32=2,38=5/2;
 6/7=2,8=2,9=2,10=2,28=1/1;
 99/5=1,9=1/99;
 Leave Link    1 at Wed Nov  3 01:18:12 2010, MaxMem=  786432000 cpu:       0.4
 (Enter /share/apps/G09A02/g09/l101.exe)
 --------
 19 H_CH4
 --------
 Symbolic Z-matrix:
 Charge =  0 Multiplicity = 2
 C
 H1                   C    R1
 H2                   C    R2       H1   A1
 H3                   C    R2       H1   A1       H2    120.     0
 H4                   C    R2       H1   A1       H2   -120.     0
 H5                   H1   R3       C     180.     H2    0.       0
       Variables:
  R1                    1.09141                  
  R2                    1.08948                  
  A1                  109.42889                  
  R3                    1.91453                  
 
 NAtoms=      6 NQM=      6 NQMF=      0 NMic=      0 NMicF=      0 NTot=      6.
                    Isotopes and Nuclear Properties:
 (Nuclear quadrupole moments (NQMom) in fm**2, nuclear magnetic moments (NMagM)
  in nuclear magnetons)

  Atom         1           2           3           4           5           6
 IAtWgt=          12           1           1           1           1           1
 AtmWgt=  12.0000000   1.0078250   1.0078250   1.0078250   1.0078250   1.0078250
 NucSpn=           0           1           1           1           1           1
 AtZEff=   0.0000000   0.0000000   0.0000000   0.0000000   0.0000000   0.0000000
 NQMom=    0.0000000   0.0000000   0.0000000   0.0000000   0.0000000   0.0000000
 NMagM=    0.0000000   2.7928460   2.7928460   2.7928460   2.7928460   2.7928460
 Leave Link  101 at Wed Nov  3 01:18:13 2010, MaxMem=  786432000 cpu:       1.0
 (Enter /share/apps/G09A02/g09/l202.exe)
                          Input orientation:                          
 ---------------------------------------------------------------------
 Center     Atomic      Atomic             Coordinates (Angstroms)
 Number     Number       Type             X           Y           Z
 ---------------------------------------------------------------------
      1          6           0        0.000000    0.000000    0.000000
      2          1           0        0.000000    0.000000    1.091415
      3          1           0        1.027438    0.000000   -0.362400
      4          1           0       -0.513719   -0.889788   -0.362400
      5          1           0       -0.513719    0.889788   -0.362400
      6          1           0        0.000000    0.000000    3.005947
 ---------------------------------------------------------------------
                    Distance matrix (angstroms):
                    1          2          3          4          5
     1  C    0.000000
     2  H    1.091415   0.000000
     3  H    1.089478   1.780227   0.000000
     4  H    1.089478   1.780227   1.779575   0.000000
     5  H    1.089478   1.780227   1.779575   1.779575   0.000000
     6  H    3.005947   1.914533   3.521561   3.521561   3.521561
                    6
     6  H    0.000000
 Symmetry turned off by external request.
 Stoichiometry    CH5(2)
 Framework group  C3V[C3(HHC),3SGV(H)]
 Deg. of freedom     4
 Full point group                 C3V     NOp   6
 Rotational constants (GHZ):    158.3432146     42.9754518     42.9754518
 Leave Link  202 at Wed Nov  3 01:18:13 2010, MaxMem=  786432000 cpu:       0.0
 (Enter /share/apps/G09A02/g09/l301.exe)
 Standard basis: 6-311+G(3df,2p) (5D, 7F)
 Ernie: Thresh=  0.10000D-02 Tol=  0.10000D-05 Strict=F.
 Integral buffers will be    131072 words long.
 Raffenetti 2 integral format.
 Two-electron integral symmetry is turned off.
    84 basis functions,   113 primitive gaussians,    90 cartesian basis functions
     6 alpha electrons        5 beta electrons
       nuclear repulsion energy        15.2193237740 Hartrees.
 IExCor=10402 DFT=T Ex=LC-B+HF Corr=LYP ExCW=0 ScaHFX=  1.000000
 ScaDFX=  1.000000  1.000000  1.000000  1.000000 ScalE2=  1.000000  1.000000
 IRadAn=      0 IRanWt=     -1 IRanGd=            0 ICorTp=0
  HFx wShort=  0.000000 wLong=  0.470000 cFull=  0.000000 cShort=  0.000000 cLong=  1.000000
  DFx wShort=  0.000000 wLong=  0.470000 cFull=  0.000000 cShort=  0.000000 cLong=  1.000000
 NAtoms=    6 NActive=    6 NUniq=    6 SFac= 7.50D-01 NAtFMM=   80 NAOKFM=F Big=F
 Leave Link  301 at Wed Nov  3 01:18:13 2010, MaxMem=  786432000 cpu:       0.6
 (Enter /share/apps/G09A02/g09/l302.exe)
 NPDir=0 NMtPBC=     1 NCelOv=     1 NCel=       1 NClECP=     1 NCelD=      1
         NCelK=      1 NCelE2=     1 NClLst=     1 CellRange=     0.0.
 One-electron integrals computed using PRISM.
 NBasis=    84 RedAO= T  NBF=    84
 NBsUse=    84 1.00D-06 NBFU=    84
 Precomputing XC quadrature grid using
 IXCGrd= 2 IRadAn=           0 IRanWt=          -1 IRanGd=           0 AccXCQ= 1.00D-10.
 NRdTot=     383 NPtTot=       48740 NUsed=       51512 NTot=       51544
 NSgBfM=    90    90    90    90    90 NAtAll=     6     6.
 Leave Link  302 at Wed Nov  3 01:18:13 2010, MaxMem=  786432000 cpu:       2.6
 (Enter /share/apps/G09A02/g09/l303.exe)
 DipDrv:  MaxL=1.
 Leave Link  303 at Wed Nov  3 01:18:13 2010, MaxMem=  786432000 cpu:       1.2
 (Enter /share/apps/G09A02/g09/l401.exe)
 Harris functional with IExCor=10402 diagonalized for initial guess.
 ExpMin= 4.38D-02 ExpMax= 4.56D+03 ExpMxC= 6.82D+02 IAcc=2 IRadAn=         0 AccDes= 0.00D+00
 HarFok:  IExCor=10402 AccDes= 0.00D+00 IRadAn=         0 IDoV= 1
 ScaDFX=  1.000000  1.000000  1.000000  1.000000
 FoFCou: FMM=F IPFlag=           0 FMFlag=      100000 FMFlg1=           0
         NFxFlg=           0 DoJE=T BraDBF=F KetDBF=T FulRan=T
         Omega=  0.000000  0.000000  1.000000  0.000000  0.000000 ICntrl=     500 IOpCl=  0
         NMat0=    1 NMatS0=    1 NMatT0=    0 NMatD0=    1 NMtDS0=    0 NMtDT0=    0
         I1Cent=           4 NGrid=           0.
 Symmetry not used in FoFCou.
 Harris En= -38.5627406135509    
 Initial guess <Sx>= 0.0000 <Sy>= 0.0000 <Sz>= 0.5000 <S**2>= 0.7500 S= 0.5000
 Leave Link  401 at Wed Nov  3 01:18:14 2010, MaxMem=  786432000 cpu:       3.7
 (Enter /share/apps/G09A02/g09/l502.exe)
 UHF open shell SCF:
 Requested convergence on RMS density matrix=1.00D-08 within 128 cycles.
 Requested convergence on MAX density matrix=1.00D-06.
 Requested convergence on             energy=1.00D-06.
 No special actions if energy rises.
 Using DIIS extrapolation, IDIIS=  1040.
 Two-electron integral symmetry not used.
        51445 words used for storage of precomputed grid.
 IEnd=       95163 IEndB=       95163 NGot=   786432000 MDV=   786361668
 LenX=   786361668 LenY=   786353127
 Fock matrices will be formed incrementally for  20 cycles.

 Cycle   1  Pass 1  IDiag  1:
 FoFJK:  IHMeth= 1 ICntrl=     0 DoSepK=T KAlg= 1 I1Cent= 0 FoldK=F
 FoFCou: FMM=F IPFlag=           0 FMFlag=      100000 FMFlg1=           0
         NFxFlg=           0 DoJE=T BraDBF=F KetDBF=F FulRan=T
         Omega=  0.000000  0.000000  1.000000  0.000000  0.000000 ICntrl=     500 IOpCl=  0
         NMat0=    1 NMatS0=    1 NMatT0=    0 NMatD0=    1 NMtDS0=    0 NMtDT0=    0
         I1Cent=           0 NGrid=           0.
 Symmetry not used in FoFCou.
 E= -40.7956611493931    
 DIIS: error= 3.43D-02 at cycle   1 NSaved=   1.
 NSaved= 1 IEnMin= 1 EnMin= -40.7956611493931     IErMin= 1 ErrMin= 3.43D-02
 ErrMax= 3.43D-02 EMaxC= 1.00D-01 BMatC= 2.62D-01 BMatP= 2.62D-01
 IDIUse=3 WtCom= 6.57D-01 WtEn= 3.43D-01
 Coeff-Com:  0.100D+01
 Coeff-En:   0.100D+01
 Coeff:      0.100D+01
 Gap=     0.503 Goal=   None    Shift=    0.000
 Gap=     0.356 Goal=   None    Shift=    0.000
 GapD=    0.356 DampG=1.000 DampE=0.500 DampFc=0.5000 IDamp=-1.
 Damping current iteration by 5.00D-01
 RMSDP=5.75D-03 MaxDP=2.08D-01              OVMax= 1.69D-01

 Cycle   2  Pass 1  IDiag  1:
 RMSU=  2.12D-03    CP:  8.73D-01
 FoFJK:  IHMeth= 1 ICntrl=     0 DoSepK=T KAlg= 1 I1Cent= 0 FoldK=F
 E= -40.8388147938107     Delta-E=       -0.043153644418 Rises=F Damp=T
 DIIS: error= 1.09D-02 at cycle   2 NSaved=   2.
 NSaved= 2 IEnMin= 2 EnMin= -40.8388147938107     IErMin= 2 ErrMin= 1.09D-02
 ErrMax= 1.09D-02 EMaxC= 1.00D-01 BMatC= 2.15D-02 BMatP= 2.62D-01
 IDIUse=3 WtCom= 8.91D-01 WtEn= 1.09D-01
 Coeff-Com: -0.213D+00 0.121D+01
 Coeff-En:   0.000D+00 0.100D+01
 Coeff:     -0.190D+00 0.119D+01
 Gap=     0.530 Goal=   None    Shift=    0.000
 Gap=     0.476 Goal=   None    Shift=    0.000
 RMSDP=3.31D-03 MaxDP=1.31D-01 DE=-4.32D-02 OVMax= 5.36D-02

 Cycle   3  Pass 1  IDiag  1:
 RMSU=  1.01D-03    CP:  7.45D-01  2.09D+00
 FoFJK:  IHMeth= 1 ICntrl=     0 DoSepK=T KAlg= 1 I1Cent= 0 FoldK=F
 E= -40.8815345720231     Delta-E=       -0.042719778212 Rises=F Damp=F
 DIIS: error= 2.51D-03 at cycle   3 NSaved=   3.
 NSaved= 3 IEnMin= 3 EnMin= -40.8815345720231     IErMin= 3 ErrMin= 2.51D-03
 ErrMax= 2.51D-03 EMaxC= 1.00D-01 BMatC= 1.03D-03 BMatP= 2.15D-02
 IDIUse=3 WtCom= 9.75D-01 WtEn= 2.51D-02
 Coeff-Com:  0.359D-01-0.274D+00 0.124D+01
 Coeff-En:   0.000D+00 0.000D+00 0.100D+01
 Coeff:      0.350D-01-0.268D+00 0.123D+01
 Gap=     0.503 Goal=   None    Shift=    0.000
 Gap=     0.507 Goal=   None    Shift=    0.000
 RMSDP=7.91D-04 MaxDP=2.96D-02 DE=-4.27D-02 OVMax= 3.60D-02

 Cycle   4  Pass 1  IDiag  1:
 RMSU=  3.73D-04    CP:  7.19D-01  2.29D+00  1.31D+00
 FoFJK:  IHMeth= 1 ICntrl=     0 DoSepK=T KAlg= 1 I1Cent= 0 FoldK=F
 E= -40.8825961283415     Delta-E=       -0.001061556318 Rises=F Damp=F
 DIIS: error= 5.70D-04 at cycle   4 NSaved=   4.
 NSaved= 4 IEnMin= 4 EnMin= -40.8825961283415     IErMin= 4 ErrMin= 5.70D-04
 ErrMax= 5.70D-04 EMaxC= 1.00D-01 BMatC= 4.33D-05 BMatP= 1.03D-03
 IDIUse=3 WtCom= 9.94D-01 WtEn= 5.70D-03
 Coeff-Com: -0.699D-02 0.760D-02-0.169D+00 0.117D+01
 Coeff-En:   0.000D+00 0.000D+00 0.000D+00 0.100D+01
 Coeff:     -0.695D-02 0.756D-02-0.168D+00 0.117D+01
 Gap=     0.503 Goal=   None    Shift=    0.000
 Gap=     0.506 Goal=   None    Shift=    0.000
 RMSDP=1.34D-04 MaxDP=5.76D-03 DE=-1.06D-03 OVMax= 7.03D-03

 Cycle   5  Pass 1  IDiag  1:
 RMSU=  2.87D-05    CP:  7.15D-01  2.31D+00  1.35D+00  1.22D+00
 FoFJK:  IHMeth= 1 ICntrl=     0 DoSepK=T KAlg= 1 I1Cent= 0 FoldK=F
 E= -40.8826402838939     Delta-E=       -0.000044155552 Rises=F Damp=F
 DIIS: error= 2.44D-04 at cycle   5 NSaved=   5.
 NSaved= 5 IEnMin= 5 EnMin= -40.8826402838939     IErMin= 5 ErrMin= 2.44D-04
 ErrMax= 2.44D-04 EMaxC= 1.00D-01 BMatC= 1.64D-06 BMatP= 4.33D-05
 IDIUse=3 WtCom= 9.98D-01 WtEn= 2.44D-03
 Coeff-Com:  0.131D-02 0.424D-02 0.268D-01-0.380D+00 0.135D+01
 Coeff-En:   0.000D+00 0.000D+00 0.000D+00 0.000D+00 0.100D+01
 Coeff:      0.131D-02 0.423D-02 0.267D-01-0.379D+00 0.135D+01
 Gap=     0.503 Goal=   None    Shift=    0.000
 Gap=     0.505 Goal=   None    Shift=    0.000
 RMSDP=1.83D-05 MaxDP=4.51D-04 DE=-4.42D-05 OVMax= 1.92D-03

 Cycle   6  Pass 1  IDiag  1:
 RMSU=  3.35D-06    CP:  7.15D-01  2.31D+00  1.35D+00  1.23D+00  1.49D+00
 FoFJK:  IHMeth= 1 ICntrl=     0 DoSepK=T KAlg= 1 I1Cent= 0 FoldK=F
 E= -40.8826424422005     Delta-E=       -0.000002158307 Rises=F Damp=F
 DIIS: error= 5.90D-05 at cycle   6 NSaved=   6.
 NSaved= 6 IEnMin= 6 EnMin= -40.8826424422005     IErMin= 6 ErrMin= 5.90D-05
 ErrMax= 5.90D-05 EMaxC= 1.00D-01 BMatC= 1.09D-07 BMatP= 1.64D-06
 IDIUse=1 WtCom= 1.00D+00 WtEn= 0.00D+00
 Coeff-Com: -0.545D-04-0.114D-02 0.104D-03 0.436D-01-0.335D+00 0.129D+01
 Coeff:     -0.545D-04-0.114D-02 0.104D-03 0.436D-01-0.335D+00 0.129D+01
 Gap=     0.503 Goal=   None    Shift=    0.000
 Gap=     0.505 Goal=   None    Shift=    0.000
 RMSDP=3.78D-06 MaxDP=8.54D-05 DE=-2.16D-06 OVMax= 4.48D-04

 Cycle   7  Pass 1  IDiag  1:
 RMSU=  1.21D-06    CP:  7.15D-01  2.31D+00  1.35D+00  1.23D+00  1.54D+00
                    CP:  1.59D+00
 FoFJK:  IHMeth= 1 ICntrl=     0 DoSepK=T KAlg= 1 I1Cent= 0 FoldK=F
 E= -40.8826425667596     Delta-E=       -0.000000124559 Rises=F Damp=F
 DIIS: error= 1.57D-05 at cycle   7 NSaved=   7.
 NSaved= 7 IEnMin= 7 EnMin= -40.8826425667596     IErMin= 7 ErrMin= 1.57D-05
 ErrMax= 1.57D-05 EMaxC= 1.00D-01 BMatC= 1.10D-08 BMatP= 1.09D-07
 IDIUse=1 WtCom= 1.00D+00 WtEn= 0.00D+00
 Coeff-Com: -0.131D-03-0.294D-03-0.192D-02 0.281D-01-0.856D-01-0.106D+00
 Coeff-Com:  0.117D+01
 Coeff:     -0.131D-03-0.294D-03-0.192D-02 0.281D-01-0.856D-01-0.106D+00
 Coeff:      0.117D+01
 Gap=     0.503 Goal=   None    Shift=    0.000
 Gap=     0.505 Goal=   None    Shift=    0.000
 RMSDP=1.19D-06 MaxDP=2.36D-05 DE=-1.25D-07 OVMax= 9.83D-05

 Cycle   8  Pass 1  IDiag  1:
 RMSU=  2.38D-07    CP:  7.15D-01  2.31D+00  1.35D+00  1.23D+00  1.54D+00
                    CP:  1.79D+00  1.42D+00
 FoFJK:  IHMeth= 1 ICntrl=     0 DoSepK=T KAlg= 1 I1Cent= 0 FoldK=F
 E= -40.8826425760609     Delta-E=       -0.000000009301 Rises=F Damp=F
 DIIS: error= 4.38D-06 at cycle   8 NSaved=   8.
 NSaved= 8 IEnMin= 8 EnMin= -40.8826425760609     IErMin= 8 ErrMin= 4.38D-06
 ErrMax= 4.38D-06 EMaxC= 1.00D-01 BMatC= 1.23D-09 BMatP= 1.10D-08
 IDIUse=1 WtCom= 1.00D+00 WtEn= 0.00D+00
 Coeff-Com:  0.471D-04 0.221D-03 0.745D-03-0.149D-01 0.688D-01-0.842D-01
 Coeff-Com: -0.453D+00 0.148D+01
 Coeff:      0.471D-04 0.221D-03 0.745D-03-0.149D-01 0.688D-01-0.842D-01
 Coeff:     -0.453D+00 0.148D+01
 Gap=     0.503 Goal=   None    Shift=    0.000
 Gap=     0.505 Goal=   None    Shift=    0.000
 RMSDP=4.37D-07 MaxDP=1.15D-05 DE=-9.30D-09 OVMax= 2.61D-05

 Cycle   9  Pass 1  IDiag  1:
 RMSU=  8.74D-08    CP:  7.15D-01  2.31D+00  1.35D+00  1.23D+00  1.54D+00
                    CP:  1.83D+00  1.59D+00  1.70D+00
 FoFJK:  IHMeth= 1 ICntrl=     0 DoSepK=T KAlg= 1 I1Cent= 0 FoldK=F
 E= -40.8826425770965     Delta-E=       -0.000000001036 Rises=F Damp=F
 DIIS: error= 8.06D-07 at cycle   9 NSaved=   9.
 NSaved= 9 IEnMin= 9 EnMin= -40.8826425770965     IErMin= 9 ErrMin= 8.06D-07
 ErrMax= 8.06D-07 EMaxC= 1.00D-01 BMatC= 4.75D-11 BMatP= 1.23D-09
 IDIUse=1 WtCom= 1.00D+00 WtEn= 0.00D+00
 Coeff-Com: -0.288D-05-0.540D-04-0.149D-03 0.321D-02-0.170D-01 0.291D-01
 Coeff-Com:  0.916D-01-0.472D+00 0.136D+01
 Coeff:     -0.288D-05-0.540D-04-0.149D-03 0.321D-02-0.170D-01 0.291D-01
 Coeff:      0.916D-01-0.472D+00 0.136D+01
 Gap=     0.503 Goal=   None    Shift=    0.000
 Gap=     0.505 Goal=   None    Shift=    0.000
 RMSDP=1.17D-07 MaxDP=3.57D-06 DE=-1.04D-09 OVMax= 4.98D-06

 Cycle  10  Pass 1  IDiag  1:
 RMSU=  2.80D-08    CP:  7.15D-01  2.31D+00  1.35D+00  1.23D+00  1.54D+00
                    CP:  1.84D+00  1.60D+00  1.84D+00  1.46D+00
 FoFJK:  IHMeth= 1 ICntrl=     0 DoSepK=T KAlg= 1 I1Cent= 0 FoldK=F
 E= -40.8826425771360     Delta-E=       -0.000000000040 Rises=F Damp=F
 DIIS: error= 1.29D-07 at cycle  10 NSaved=  10.
 NSaved=10 IEnMin=10 EnMin= -40.8826425771360     IErMin=10 ErrMin= 1.29D-07
 ErrMax= 1.29D-07 EMaxC= 1.00D-01 BMatC= 2.25D-12 BMatP= 4.75D-11
 IDIUse=1 WtCom= 1.00D+00 WtEn= 0.00D+00
 Coeff-Com: -0.107D-05 0.119D-04 0.265D-04-0.625D-03 0.367D-02-0.744D-02
 Coeff-Com: -0.153D-01 0.108D+00-0.480D+00 0.139D+01
 Coeff:     -0.107D-05 0.119D-04 0.265D-04-0.625D-03 0.367D-02-0.744D-02
 Coeff:     -0.153D-01 0.108D+00-0.480D+00 0.139D+01
 Gap=     0.503 Goal=   None    Shift=    0.000
 Gap=     0.505 Goal=   None    Shift=    0.000
 RMSDP=2.36D-08 MaxDP=6.39D-07 DE=-3.95D-11 OVMax= 9.69D-07

 Cycle  11  Pass 1  IDiag  1:
 RMSU=  5.05D-09    CP:  7.15D-01  2.31D+00  1.35D+00  1.23D+00  1.54D+00
                    CP:  1.84D+00  1.60D+00  1.85D+00  1.54D+00  1.42D+00
 FoFJK:  IHMeth= 1 ICntrl=     0 DoSepK=T KAlg= 1 I1Cent= 0 FoldK=F
 E= -40.8826425771383     Delta-E=       -0.000000000002 Rises=F Damp=F
 DIIS: error= 4.20D-08 at cycle  11 NSaved=  11.
 NSaved=11 IEnMin=11 EnMin= -40.8826425771383     IErMin=11 ErrMin= 4.20D-08
 ErrMax= 4.20D-08 EMaxC= 1.00D-01 BMatC= 2.12D-13 BMatP= 2.25D-12
 IDIUse=1 WtCom= 1.00D+00 WtEn= 0.00D+00
 Coeff-Com:  0.468D-06-0.271D-05-0.367D-05 0.120D-03-0.767D-03 0.188D-02
 Coeff-Com:  0.114D-02-0.192D-01 0.120D+00-0.587D+00 0.148D+01
 Coeff:      0.468D-06-0.271D-05-0.367D-05 0.120D-03-0.767D-03 0.188D-02
 Coeff:      0.114D-02-0.192D-01 0.120D+00-0.587D+00 0.148D+01
 Gap=     0.503 Goal=   None    Shift=    0.000
 Gap=     0.505 Goal=   None    Shift=    0.000
 RMSDP=6.03D-09 MaxDP=9.22D-08 DE=-2.28D-12 OVMax= 2.47D-07

 SCF Done:  E(ULC-B+HF-LYP) =  -40.8826425771     A.U. after   11 cycles
             Convg  =    0.6030D-08             -V/T =  2.0049
 <Sx>= 0.0000 <Sy>= 0.0000 <Sz>= 0.5000 <S**2>= 0.7506 S= 0.5003
 <L.S>= 0.000000000000E+00
 KE= 4.068520381552D+01 PE=-1.245855930851D+02 EE= 2.779842291846D+01
 Annihilation of the first spin contaminant:
 S**2 before annihilation     0.7506,   after     0.7500
 Leave Link  502 at Wed Nov  3 01:18:46 2010, MaxMem=  786432000 cpu:     256.9
 (Enter /share/apps/G09A02/g09/l601.exe)
 Copying SCF densities to generalized density rwf, IOpCl= 1 IROHF=0.

 **********************************************************************

            Population analysis using the SCF density.

 **********************************************************************

 Alpha  occ. eigenvalues --  -10.11440  -0.86161  -0.54201  -0.52634  -0.52634
 Alpha  occ. eigenvalues --   -0.43700
 Alpha virt. eigenvalues --    0.06608   0.09503   0.09503   0.11056   0.22550
 Alpha virt. eigenvalues --    0.22550   0.25671   0.26997   0.35995   0.36365
 Alpha virt. eigenvalues --    0.36365   0.41828   0.41828   0.45024   0.64191
 Alpha virt. eigenvalues --    0.64191   0.66786   0.69586   0.69586   0.71188
 Alpha virt. eigenvalues --    0.78821   0.80178   0.80179   0.82380   0.99086
 Alpha virt. eigenvalues --    0.99453   1.00722   1.00722   1.10211   1.10211
 Alpha virt. eigenvalues --    1.25629   1.25629   1.33074   1.40823   1.40823
 Alpha virt. eigenvalues --    1.48483   1.71300   2.06619   2.06619   2.07673
 Alpha virt. eigenvalues --    2.07673   2.08213   2.43658   2.56581   2.78663
 Alpha virt. eigenvalues --    2.78663   2.82128   3.08903   3.09041   3.09041
 Alpha virt. eigenvalues --    3.43740   3.43740   3.47633   3.65037   3.65037
 Alpha virt. eigenvalues --    3.69493   3.82637   3.82637   4.07094   4.09741
 Alpha virt. eigenvalues --    4.31039   4.31039   4.34797   4.35456   4.35456
 Alpha virt. eigenvalues --    4.58610   4.58610   4.58742   5.05919   5.89181
 Alpha virt. eigenvalues --    5.89181   5.89188   7.30169   7.30169   7.91242
 Alpha virt. eigenvalues --    7.91242   7.92919  24.28869
  Beta  occ. eigenvalues --  -10.11361  -0.85929  -0.52643  -0.52582  -0.52582
  Beta virt. eigenvalues --   -0.02077   0.07023   0.09393   0.09394   0.11585
  Beta virt. eigenvalues --    0.22562   0.22562   0.26087   0.27346   0.36387
  Beta virt. eigenvalues --    0.36387   0.38913   0.41779   0.41779   0.48662
  Beta virt. eigenvalues --    0.64468   0.64468   0.66923   0.71351   0.73322
  Beta virt. eigenvalues --    0.73322   0.79075   0.80175   0.80175   0.83395
  Beta virt. eigenvalues --    0.99085   1.00926   1.00926   1.01104   1.10231
  Beta virt. eigenvalues --    1.10232   1.25653   1.25653   1.33283   1.40868
  Beta virt. eigenvalues --    1.40868   1.49485   1.71904   2.06714   2.06714
  Beta virt. eigenvalues --    2.07811   2.07811   2.09408   2.52998   2.65492
  Beta virt. eigenvalues --    2.78738   2.78738   2.82930   3.08935   3.09267
  Beta virt. eigenvalues --    3.09267   3.43878   3.43878   3.47817   3.65163
  Beta virt. eigenvalues --    3.65163   3.70401   3.97797   3.97797   4.07622
  Beta virt. eigenvalues --    4.21945   4.31069   4.31069   4.35442   4.35442
  Beta virt. eigenvalues --    4.36332   4.58650   4.58650   4.58768   5.06120
  Beta virt. eigenvalues --    5.89227   5.89227   5.89336   7.30400   7.30400
  Beta virt. eigenvalues --    7.91383   7.91383   7.93234  24.28975
          Condensed to atoms (all electrons):
              1          2          3          4          5          6
     1  C    5.094287   0.391414   0.402609   0.402610   0.402610  -0.001849
     2  H    0.391414   0.477190  -0.016764  -0.016764  -0.016764  -0.011049
     3  H    0.402609  -0.016764   0.481945  -0.017346  -0.017346   0.000156
     4  H    0.402610  -0.016764  -0.017346   0.481943  -0.017346   0.000156
     5  H    0.402610  -0.016764  -0.017346  -0.017346   0.481943   0.000156
     6  H   -0.001849  -0.011049   0.000156   0.000156   0.000156   1.013728
 Mulliken atomic charges:
              1
     1  C   -0.691681
     2  H    0.192738
     3  H    0.166747
     4  H    0.166748
     5  H    0.166748
     6  H   -0.001300
 Sum of Mulliken atomic charges =   0.00000
 Mulliken charges with hydrogens summed into heavy atoms:
              1
     1  C    0.000000
 Sum of Mulliken charges with hydrogens summed into heavy atoms =   0.00000
          Atomic-Atomic Spin Densities.
              1          2          3          4          5          6
     1  C    0.049207   0.006207  -0.000378  -0.000378  -0.000378  -0.007116
     2  H    0.006207  -0.018186   0.000811   0.000811   0.000811  -0.020223
     3  H   -0.000378   0.000811  -0.000794  -0.000141  -0.000141   0.000340
     4  H   -0.000378   0.000811  -0.000141  -0.000795  -0.000141   0.000340
     5  H   -0.000378   0.000811  -0.000141  -0.000141  -0.000795   0.000340
     6  H   -0.007116  -0.020223   0.000340   0.000340   0.000340   1.009833
 Mulliken atomic spin densities:
              1
     1  C    0.047166
     2  H   -0.029769
     3  H   -0.000303
     4  H   -0.000304
     5  H   -0.000304
     6  H    0.983514
 Sum of Mulliken atomic spin densities =   1.00000
 Electronic spatial extent (au):  <R**2>=             71.5661
 Charge=              0.0000 electrons
 Dipole moment (field-independent basis, Debye):
    X=              0.0000    Y=              0.0000    Z=             -0.0662  Tot=              0.0662
 Quadrupole moment (field-independent basis, Debye-Ang):
   XX=             -9.9191   YY=             -9.9191   ZZ=            -10.1950
   XY=              0.0000   XZ=              0.0000   YZ=              0.0000
 Traceless Quadrupole moment (field-independent basis, Debye-Ang):
   XX=              0.0920   YY=              0.0920   ZZ=             -0.1840
   XY=              0.0000   XZ=              0.0000   YZ=              0.0000
 Octapole moment (field-independent basis, Debye-Ang**2):
  XXX=              0.6655  YYY=              0.0000  ZZZ=            -12.8268  XYY=             -0.6655
  XXY=              0.0000  XXZ=             -4.7461  XZZ=              0.0000  YZZ=              0.0000
  YYZ=             -4.7461  XYZ=              0.0000
 Hexadecapole moment (field-independent basis, Debye-Ang**3):
 XXXX=            -18.4361 YYYY=            -18.4361 ZZZZ=            -98.5558 XXXY=              0.0000
 XXXZ=             -0.4233 YYYX=              0.0000 YYYZ=              0.0000 ZZZX=              0.0000
 ZZZY=              0.0000 XXYY=             -6.1454 XXZZ=            -19.3723 YYZZ=            -19.3723
 XXYZ=              0.0000 YYXZ=              0.4233 ZZXY=              0.0000
 N-N= 1.521932377399D+01 E-N=-1.854099944492D+02  KE= 6.074934619196D+01
                          Isotropic Fermi Contact Couplings
        Atom                 a.u.       MegaHertz       Gauss      10(-4) cm-1
     1  C(13)              0.01961      22.05063       7.86821       7.35530
     2  H(1)              -0.00046      -2.06431      -0.73660      -0.68858
     3  H(1)              -0.00026      -1.15628      -0.41259      -0.38569
     4  H(1)              -0.00026      -1.15621      -0.41257      -0.38567
     5  H(1)              -0.00026      -1.15621      -0.41257      -0.38567
     6  H(1)               0.28641    1280.23660     456.82024     427.04096
 --------------------------------------------------------
       Center         ----  Spin Dipole Couplings  ----
                      3XX-RR        3YY-RR        3ZZ-RR
 --------------------------------------------------------
     1   Atom       -0.032256     -0.032256      0.064511
     2   Atom       -0.026759     -0.026759      0.053518
     3   Atom        0.000418     -0.005917      0.005499
     4   Atom       -0.004334     -0.001166      0.005499
     5   Atom       -0.004334     -0.001166      0.005499
     6   Atom        0.000909      0.000909     -0.001817
 --------------------------------------------------------
                        XY            XZ            YZ
 --------------------------------------------------------
     1   Atom        0.000000      0.000000      0.000000
     2   Atom        0.000000      0.000000      0.000000
     3   Atom        0.000000     -0.004181      0.000000
     4   Atom        0.002743      0.002090      0.003620
     5   Atom       -0.002743      0.002090     -0.003620
     6   Atom        0.000000      0.000000      0.000000
 --------------------------------------------------------


 ---------------------------------------------------------------------------------
              Anisotropic Spin Dipole Couplings in Principal Axis System
 ---------------------------------------------------------------------------------

       Atom             a.u.   MegaHertz   Gauss  10(-4) cm-1        Axes

              Baa    -0.0323    -4.328    -1.544    -1.444  1.0000  0.0000  0.0000
     1 C(13)  Bbb    -0.0323    -4.328    -1.544    -1.444  0.0000  1.0000  0.0000
              Bcc     0.0645     8.657     3.089     2.888  0.0000  0.0000  1.0000
 
              Baa    -0.0268   -14.277    -5.095    -4.762  1.0000  0.0000  0.0000
     2 H(1)   Bbb    -0.0268   -14.277    -5.095    -4.762  0.0000  1.0000  0.0000
              Bcc     0.0535    28.555    10.189     9.525  0.0000  0.0000  1.0000
 
              Baa    -0.0059    -3.157    -1.127    -1.053  0.0000  1.0000  0.0000
     3 H(1)   Bbb    -0.0019    -1.032    -0.368    -0.344  0.8716  0.0000  0.4902
              Bcc     0.0079     4.189     1.495     1.397 -0.4902  0.0000  0.8716
 
              Baa    -0.0059    -3.157    -1.127    -1.053  0.8660 -0.5000  0.0000
     4 H(1)   Bbb    -0.0019    -1.032    -0.368    -0.344  0.4358  0.7548 -0.4902
              Bcc     0.0079     4.189     1.495     1.397  0.2451  0.4246  0.8716
 
              Baa    -0.0059    -3.157    -1.127    -1.053  0.8660  0.5000  0.0000
     5 H(1)   Bbb    -0.0019    -1.032    -0.368    -0.344 -0.4358  0.7548  0.4902
              Bcc     0.0079     4.189     1.495     1.397  0.2451 -0.4246  0.8716
 
              Baa    -0.0018    -0.970    -0.346    -0.323  0.0000  0.0000  1.0000
     6 H(1)   Bbb     0.0009     0.485     0.173     0.162  1.0000  0.0000  0.0000
              Bcc     0.0009     0.485     0.173     0.162  0.0000  1.0000  0.0000
 

 ---------------------------------------------------------------------------------

 No NMR shielding tensors so no spin-rotation constants.
 Leave Link  601 at Wed Nov  3 01:18:46 2010, MaxMem=  786432000 cpu:       3.8
 (Enter /share/apps/G09A02/g09/l9999.exe)
 1\1\GINC-COMPUTE-0-7\SP\ULC-BLYP\6-311+G(3df,2p)\C1H5(2)\WENXINZY\03-N
 ov-2010\0\\#p lc-blyp/6-311+g(3df,2p) nosymm scf=tight\\19 H_CH4\\0,2\
 C\H,1,1.0914145\H,1,1.0894784,2,109.4288903\H,1,1.0894784,2,109.428890
 3,3,120.,0\H,1,1.0894784,2,109.4288903,3,-120.,0\H,2,1.9145325,1,180.,
 3,0.,0\\Version=EM64L-G09RevA.02\HF=-40.8826426\S2=0.750582\S2-1=0.\S2
 A=0.75\RMSD=6.030e-09\Dipole=0.0000003,0.,-0.0260368\Quadrupole=0.0683
 916,0.0683946,-0.1367863,0.,0.0000003,0.\PG=C03V [C3(H1H1C1),3SGV(H1)]
 \\@


 "TIGER, TIGER BURNING BRIGHT
 IN THE FOREST OF THE NIGHT.
 WHAT IMMORTAL HAND OR EYE
 CAN FRAME THY FEARFUL SYMMETRYE?"
                     - WILLIAM BLAKE
 Job cpu time:  0 days  0 hours  4 minutes 31.6 seconds.
 File lengths (MBytes):  RWF=      9 Int=      0 D2E=      0 Chk=      1 Scr=      1
 Normal termination of Gaussian 09 at Wed Nov  3 01:18:46 2010.
