 Entering Gaussian System, Link 0=/share/apps/G09A02/g09/g09
 Input=./.script12553/Job_H_CH4_4.com
 Output=./.script12553/Job_H_CH4_4.log
 Initial command:
 /share/apps/G09A02/g09/l1.exe /state/partition1/wenxinzy/scratch/Gau-12974.inp -scrdir=/state/partition1/wenxinzy/scratch/
 Default is to use a total of   8 processors:
                                8 via shared-memory
                                1 via Linda
 Entering Link 1 = /share/apps/G09A02/g09/l1.exe PID=     12975.
  
 Copyright (c) 1988,1990,1992,1993,1995,1998,2003,2009, Gaussian, Inc.
                  All Rights Reserved.
  
 This is part of the Gaussian(R) 09 program.  It is based on
 the Gaussian(R) 03 system (copyright 2003, Gaussian, Inc.),
 the Gaussian(R) 98 system (copyright 1998, Gaussian, Inc.),
 the Gaussian(R) 94 system (copyright 1995, Gaussian, Inc.),
 the Gaussian 92(TM) system (copyright 1992, Gaussian, Inc.),
 the Gaussian 90(TM) system (copyright 1990, Gaussian, Inc.),
 the Gaussian 88(TM) system (copyright 1988, Gaussian, Inc.),
 the Gaussian 86(TM) system (copyright 1986, Carnegie Mellon
 University), and the Gaussian 82(TM) system (copyright 1983,
 Carnegie Mellon University). Gaussian is a federally registered
 trademark of Gaussian, Inc.
  
 This software contains proprietary and confidential information,
 including trade secrets, belonging to Gaussian, Inc.
  
 This software is provided under written license and may be
 used, copied, transmitted, or stored only in accord with that
 written license.
  
 The following legend is applicable only to US Government
 contracts under FAR:
  
                    RESTRICTED RIGHTS LEGEND
  
 Use, reproduction and disclosure by the US Government is
 subject to restrictions as set forth in subparagraphs (a)
 and (c) of the Commercial Computer Software - Restricted
 Rights clause in FAR 52.227-19.
  
 Gaussian, Inc.
 340 Quinnipiac St., Bldg. 40, Wallingford CT 06492
  
  
 ---------------------------------------------------------------
 Warning -- This program may not be used in any manner that
 competes with the business of Gaussian, Inc. or will provide
 assistance to any competitor of Gaussian, Inc.  The licensee
 of this program is prohibited from giving any competitor of
 Gaussian, Inc. access to this program.  By using this program,
 the user acknowledges that Gaussian, Inc. is engaged in the
 business of creating and licensing software in the field of
 computational chemistry and represents and warrants to the
 licensee that it is not a competitor of Gaussian, Inc. and that
 it will not use this program in any manner prohibited above.
 ---------------------------------------------------------------
  

 Cite this work as:
 Gaussian 09, Revision A.02,
 M. J. Frisch, G. W. Trucks, H. B. Schlegel, G. E. Scuseria, 
 M. A. Robb, J. R. Cheeseman, G. Scalmani, V. Barone, B. Mennucci, 
 G. A. Petersson, H. Nakatsuji, M. Caricato, X. Li, H. P. Hratchian, 
 A. F. Izmaylov, J. Bloino, G. Zheng, J. L. Sonnenberg, M. Hada, 
 M. Ehara, K. Toyota, R. Fukuda, J. Hasegawa, M. Ishida, T. Nakajima, 
 Y. Honda, O. Kitao, H. Nakai, T. Vreven, J. A. Montgomery, Jr., 
 J. E. Peralta, F. Ogliaro, M. Bearpark, J. J. Heyd, E. Brothers, 
 K. N. Kudin, V. N. Staroverov, R. Kobayashi, J. Normand, 
 K. Raghavachari, A. Rendell, J. C. Burant, S. S. Iyengar, J. Tomasi, 
 M. Cossi, N. Rega, J. M. Millam, M. Klene, J. E. Knox, J. B. Cross, 
 V. Bakken, C. Adamo, J. Jaramillo, R. Gomperts, R. E. Stratmann, 
 O. Yazyev, A. J. Austin, R. Cammi, C. Pomelli, J. W. Ochterski, 
 R. L. Martin, K. Morokuma, V. G. Zakrzewski, G. A. Voth, 
 P. Salvador, J. J. Dannenberg, S. Dapprich, A. D. Daniels, 
 O. Farkas, J. B. Foresman, J. V. Ortiz, J. Cioslowski, 
 and D. J. Fox, Gaussian, Inc., Wallingford CT, 2009.
 
 ******************************************
 Gaussian 09:  EM64L-G09RevA.02 11-Jun-2009
                 3-Nov-2010 
 ******************************************
 %chk=/state/partition1/wenxinzy/scratch/H_CH4_4.chk
 %nproc=8
 Will use up to    8 processors via shared memory.
 %mem=6000mb
 -------------------------------------------
 #p lc-blyp/6-311+g(3df,2p) nosymm scf=tight
 -------------------------------------------
 1/38=1/1;
 2/12=2,15=1,17=6,18=5,40=1/2;
 3/5=4,6=6,7=216,11=2,16=1,25=1,30=1,74=1000402/1,2,3;
 4//1;
 5/5=2,32=2,38=5/2;
 6/7=2,8=2,9=2,10=2,28=1/1;
 99/5=1,9=1/99;
 Leave Link    1 at Wed Nov  3 01:09:41 2010, MaxMem=  786432000 cpu:       0.5
 (Enter /share/apps/G09A02/g09/l101.exe)
 -------
 5 H_CH4
 -------
 Symbolic Z-matrix:
 Charge =  0 Multiplicity = 2
 C
 H1                   C    R1
 H2                   C    R2       H1   A1
 H3                   C    R2       H1   A1       H2    120.     0
 H4                   C    R2       H1   A1       H2   -120.     0
 H5                   H1   R3       C     180.     H2    0.       0
       Variables:
  R1                    1.23358                  
  R2                    1.08742                  
  A1                  106.25892                  
  R3                    1.0255                   
 
 NAtoms=      6 NQM=      6 NQMF=      0 NMic=      0 NMicF=      0 NTot=      6.
                    Isotopes and Nuclear Properties:
 (Nuclear quadrupole moments (NQMom) in fm**2, nuclear magnetic moments (NMagM)
  in nuclear magnetons)

  Atom         1           2           3           4           5           6
 IAtWgt=          12           1           1           1           1           1
 AtmWgt=  12.0000000   1.0078250   1.0078250   1.0078250   1.0078250   1.0078250
 NucSpn=           0           1           1           1           1           1
 AtZEff=   0.0000000   0.0000000   0.0000000   0.0000000   0.0000000   0.0000000
 NQMom=    0.0000000   0.0000000   0.0000000   0.0000000   0.0000000   0.0000000
 NMagM=    0.0000000   2.7928460   2.7928460   2.7928460   2.7928460   2.7928460
 Leave Link  101 at Wed Nov  3 01:09:41 2010, MaxMem=  786432000 cpu:       1.0
 (Enter /share/apps/G09A02/g09/l202.exe)
                          Input orientation:                          
 ---------------------------------------------------------------------
 Center     Atomic      Atomic             Coordinates (Angstroms)
 Number     Number       Type             X           Y           Z
 ---------------------------------------------------------------------
      1          6           0        0.000000    0.000000    0.000000
      2          1           0        0.000000    0.000000    1.233577
      3          1           0        1.043930    0.000000   -0.304454
      4          1           0       -0.521965   -0.904070   -0.304454
      5          1           0       -0.521965    0.904070   -0.304454
      6          1           0        0.000000    0.000000    2.259076
 ---------------------------------------------------------------------
                    Distance matrix (angstroms):
                    1          2          3          4          5
     1  C    0.000000
     2  H    1.233577   0.000000
     3  H    1.087420   1.858852   0.000000
     4  H    1.087420   1.858852   1.808139   0.000000
     5  H    1.087420   1.858852   1.808139   1.808139   0.000000
     6  H    2.259076   1.025498   2.767937   2.767937   2.767937
                    6
     6  H    0.000000
 Symmetry turned off by external request.
 Stoichiometry    CH5(2)
 Framework group  C3V[C3(HHC),3SGV(H)]
 Deg. of freedom     4
 Full point group                 C3V     NOp   6
 Rotational constants (GHZ):    153.3798288     61.5705206     61.5705206
 Leave Link  202 at Wed Nov  3 01:09:41 2010, MaxMem=  786432000 cpu:       0.0
 (Enter /share/apps/G09A02/g09/l301.exe)
 Standard basis: 6-311+G(3df,2p) (5D, 7F)
 Ernie: Thresh=  0.10000D-02 Tol=  0.10000D-05 Strict=F.
 Integral buffers will be    131072 words long.
 Raffenetti 2 integral format.
 Two-electron integral symmetry is turned off.
    84 basis functions,   113 primitive gaussians,    90 cartesian basis functions
     6 alpha electrons        5 beta electrons
       nuclear repulsion energy        15.5603720421 Hartrees.
 IExCor=10402 DFT=T Ex=LC-B+HF Corr=LYP ExCW=0 ScaHFX=  1.000000
 ScaDFX=  1.000000  1.000000  1.000000  1.000000 ScalE2=  1.000000  1.000000
 IRadAn=      0 IRanWt=     -1 IRanGd=            0 ICorTp=0
  HFx wShort=  0.000000 wLong=  0.470000 cFull=  0.000000 cShort=  0.000000 cLong=  1.000000
  DFx wShort=  0.000000 wLong=  0.470000 cFull=  0.000000 cShort=  0.000000 cLong=  1.000000
 NAtoms=    6 NActive=    6 NUniq=    6 SFac= 7.50D-01 NAtFMM=   80 NAOKFM=F Big=F
 Leave Link  301 at Wed Nov  3 01:09:41 2010, MaxMem=  786432000 cpu:       0.7
 (Enter /share/apps/G09A02/g09/l302.exe)
 NPDir=0 NMtPBC=     1 NCelOv=     1 NCel=       1 NClECP=     1 NCelD=      1
         NCelK=      1 NCelE2=     1 NClLst=     1 CellRange=     0.0.
 One-electron integrals computed using PRISM.
 NBasis=    84 RedAO= T  NBF=    84
 NBsUse=    84 1.00D-06 NBFU=    84
 Precomputing XC quadrature grid using
 IXCGrd= 2 IRadAn=           0 IRanWt=          -1 IRanGd=           0 AccXCQ= 1.00D-10.
 NRdTot=     383 NPtTot=       48740 NUsed=       51512 NTot=       51544
 NSgBfM=    90    90    90    90    90 NAtAll=     6     6.
 Leave Link  302 at Wed Nov  3 01:09:41 2010, MaxMem=  786432000 cpu:       2.5
 (Enter /share/apps/G09A02/g09/l303.exe)
 DipDrv:  MaxL=1.
 Leave Link  303 at Wed Nov  3 01:09:42 2010, MaxMem=  786432000 cpu:       0.4
 (Enter /share/apps/G09A02/g09/l401.exe)
 Harris functional with IExCor=10402 diagonalized for initial guess.
 ExpMin= 4.38D-02 ExpMax= 4.56D+03 ExpMxC= 6.82D+02 IAcc=2 IRadAn=         0 AccDes= 0.00D+00
 HarFok:  IExCor=10402 AccDes= 0.00D+00 IRadAn=         0 IDoV= 1
 ScaDFX=  1.000000  1.000000  1.000000  1.000000
 FoFCou: FMM=F IPFlag=           0 FMFlag=      100000 FMFlg1=           0
         NFxFlg=           0 DoJE=T BraDBF=F KetDBF=T FulRan=T
         Omega=  0.000000  0.000000  1.000000  0.000000  0.000000 ICntrl=     500 IOpCl=  0
         NMat0=    1 NMatS0=    1 NMatT0=    0 NMatD0=    1 NMtDS0=    0 NMtDT0=    0
         I1Cent=           4 NGrid=           0.
 Symmetry not used in FoFCou.
 Harris En= -38.5406675425514    
 Initial guess <Sx>= 0.0000 <Sy>= 0.0000 <Sz>= 0.5000 <S**2>= 0.7500 S= 0.5000
 Leave Link  401 at Wed Nov  3 01:09:42 2010, MaxMem=  786432000 cpu:       3.7
 (Enter /share/apps/G09A02/g09/l502.exe)
 UHF open shell SCF:
 Requested convergence on RMS density matrix=1.00D-08 within 128 cycles.
 Requested convergence on MAX density matrix=1.00D-06.
 Requested convergence on             energy=1.00D-06.
 No special actions if energy rises.
 Using DIIS extrapolation, IDIIS=  1040.
 Two-electron integral symmetry not used.
        51445 words used for storage of precomputed grid.
 IEnd=       95163 IEndB=       95163 NGot=   786432000 MDV=   786361668
 LenX=   786361668 LenY=   786353127
 Fock matrices will be formed incrementally for  20 cycles.

 Cycle   1  Pass 1  IDiag  1:
 FoFJK:  IHMeth= 1 ICntrl=     0 DoSepK=T KAlg= 1 I1Cent= 0 FoldK=F
 FoFCou: FMM=F IPFlag=           0 FMFlag=      100000 FMFlg1=           0
         NFxFlg=           0 DoJE=T BraDBF=F KetDBF=F FulRan=T
         Omega=  0.000000  0.000000  1.000000  0.000000  0.000000 ICntrl=     500 IOpCl=  0
         NMat0=    1 NMatS0=    1 NMatT0=    0 NMatD0=    1 NMtDS0=    0 NMtDT0=    0
         I1Cent=           0 NGrid=           0.
 Symmetry not used in FoFCou.
 E= -40.8098821576926    
 DIIS: error= 2.80D-02 at cycle   1 NSaved=   1.
 NSaved= 1 IEnMin= 1 EnMin= -40.8098821576926     IErMin= 1 ErrMin= 2.80D-02
 ErrMax= 2.80D-02 EMaxC= 1.00D-01 BMatC= 1.77D-01 BMatP= 1.77D-01
 IDIUse=3 WtCom= 7.20D-01 WtEn= 2.80D-01
 Coeff-Com:  0.100D+01
 Coeff-En:   0.100D+01
 Coeff:      0.100D+01
 Gap=     0.399 Goal=   None    Shift=    0.000
 Gap=     0.467 Goal=   None    Shift=    0.000
 GapD=    0.399 DampG=1.000 DampE=0.500 DampFc=0.5000 IDamp=-1.
 Damping current iteration by 5.00D-01
 RMSDP=5.67D-03 MaxDP=1.98D-01              OVMax= 1.36D-01

 Cycle   2  Pass 1  IDiag  1:
 RMSU=  2.06D-03    CP:  8.83D-01
 FoFJK:  IHMeth= 1 ICntrl=     0 DoSepK=T KAlg= 1 I1Cent= 0 FoldK=F
 E= -40.8374348196752     Delta-E=       -0.027552661983 Rises=F Damp=T
 DIIS: error= 9.31D-03 at cycle   2 NSaved=   2.
 NSaved= 2 IEnMin= 2 EnMin= -40.8374348196752     IErMin= 2 ErrMin= 9.31D-03
 ErrMax= 9.31D-03 EMaxC= 1.00D-01 BMatC= 1.41D-02 BMatP= 1.77D-01
 IDIUse=3 WtCom= 9.07D-01 WtEn= 9.31D-02
 Coeff-Com: -0.200D+00 0.120D+01
 Coeff-En:   0.000D+00 0.100D+01
 Coeff:     -0.181D+00 0.118D+01
 Gap=     0.419 Goal=   None    Shift=    0.000
 Gap=     0.535 Goal=   None    Shift=    0.000
 RMSDP=4.24D-03 MaxDP=1.51D-01 DE=-2.76D-02 OVMax= 5.27D-02

 Cycle   3  Pass 1  IDiag  1:
 RMSU=  1.54D-03    CP:  7.10D-01  2.29D+00
 FoFJK:  IHMeth= 1 ICntrl=     0 DoSepK=T KAlg= 1 I1Cent= 0 FoldK=F
 E= -40.8647189935338     Delta-E=       -0.027284173859 Rises=F Damp=F
 DIIS: error= 2.82D-03 at cycle   3 NSaved=   3.
 NSaved= 3 IEnMin= 3 EnMin= -40.8647189935338     IErMin= 3 ErrMin= 2.82D-03
 ErrMax= 2.82D-03 EMaxC= 1.00D-01 BMatC= 1.19D-03 BMatP= 1.41D-02
 IDIUse=3 WtCom= 9.72D-01 WtEn= 2.82D-02
 Coeff-Com:  0.123D-01-0.227D+00 0.121D+01
 Coeff-En:   0.000D+00 0.000D+00 0.100D+01
 Coeff:      0.119D-01-0.221D+00 0.121D+01
 Gap=     0.414 Goal=   None    Shift=    0.000
 Gap=     0.537 Goal=   None    Shift=    0.000
 RMSDP=1.26D-03 MaxDP=4.42D-02 DE=-2.73D-02 OVMax= 3.27D-02

 Cycle   4  Pass 1  IDiag  1:
 RMSU=  4.28D-04    CP:  6.60D-01  2.58D+00  1.37D+00
 FoFJK:  IHMeth= 1 ICntrl=     0 DoSepK=T KAlg= 1 I1Cent= 0 FoldK=F
 E= -40.8658083958067     Delta-E=       -0.001089402273 Rises=F Damp=F
 DIIS: error= 1.02D-03 at cycle   4 NSaved=   4.
 NSaved= 4 IEnMin= 4 EnMin= -40.8658083958067     IErMin= 4 ErrMin= 1.02D-03
 ErrMax= 1.02D-03 EMaxC= 1.00D-01 BMatC= 1.27D-04 BMatP= 1.19D-03
 IDIUse=3 WtCom= 9.90D-01 WtEn= 1.02D-02
 Coeff-Com: -0.474D-03-0.229D-01-0.252D+00 0.128D+01
 Coeff-En:   0.000D+00 0.000D+00 0.000D+00 0.100D+01
 Coeff:     -0.469D-03-0.227D-01-0.250D+00 0.127D+01
 Gap=     0.418 Goal=   None    Shift=    0.000
 Gap=     0.538 Goal=   None    Shift=    0.000
 RMSDP=3.79D-04 MaxDP=1.33D-02 DE=-1.09D-03 OVMax= 1.28D-02

 Cycle   5  Pass 1  IDiag  1:
 RMSU=  4.68D-05    CP:  6.46D-01  2.66D+00  1.47D+00  1.41D+00
 FoFJK:  IHMeth= 1 ICntrl=     0 DoSepK=T KAlg= 1 I1Cent= 0 FoldK=F
 E= -40.8659362448884     Delta-E=       -0.000127849082 Rises=F Damp=F
 DIIS: error= 2.97D-04 at cycle   5 NSaved=   5.
 NSaved= 5 IEnMin= 5 EnMin= -40.8659362448884     IErMin= 5 ErrMin= 2.97D-04
 ErrMax= 2.97D-04 EMaxC= 1.00D-01 BMatC= 9.07D-06 BMatP= 1.27D-04
 IDIUse=3 WtCom= 9.97D-01 WtEn= 2.97D-03
 Coeff-Com: -0.120D-02 0.169D-01-0.112D-01-0.247D+00 0.124D+01
 Coeff-En:   0.000D+00 0.000D+00 0.000D+00 0.000D+00 0.100D+01
 Coeff:     -0.120D-02 0.168D-01-0.112D-01-0.246D+00 0.124D+01
 Gap=     0.418 Goal=   None    Shift=    0.000
 Gap=     0.538 Goal=   None    Shift=    0.000
 RMSDP=3.81D-05 MaxDP=1.15D-03 DE=-1.28D-04 OVMax= 2.55D-03

 Cycle   6  Pass 1  IDiag  1:
 RMSU=  1.44D-05    CP:  6.46D-01  2.66D+00  1.47D+00  1.44D+00  1.54D+00
 FoFJK:  IHMeth= 1 ICntrl=     0 DoSepK=T KAlg= 1 I1Cent= 0 FoldK=F
 E= -40.8659452266323     Delta-E=       -0.000008981744 Rises=F Damp=F
 DIIS: error= 1.03D-04 at cycle   6 NSaved=   6.
 NSaved= 6 IEnMin= 6 EnMin= -40.8659452266323     IErMin= 6 ErrMin= 1.03D-04
 ErrMax= 1.03D-04 EMaxC= 1.00D-01 BMatC= 9.96D-07 BMatP= 9.07D-06
 IDIUse=3 WtCom= 9.99D-01 WtEn= 1.03D-03
 Coeff-Com: -0.186D-03 0.169D-02 0.267D-01-0.112D+00-0.111D+00 0.120D+01
 Coeff-En:   0.000D+00 0.000D+00 0.000D+00 0.000D+00 0.000D+00 0.100D+01
 Coeff:     -0.185D-03 0.168D-02 0.267D-01-0.112D+00-0.111D+00 0.119D+01
 Gap=     0.419 Goal=   None    Shift=    0.000
 Gap=     0.538 Goal=   None    Shift=    0.000
 RMSDP=1.38D-05 MaxDP=3.43D-04 DE=-8.98D-06 OVMax= 8.96D-04

 Cycle   7  Pass 1  IDiag  1:
 RMSU=  3.21D-06    CP:  6.46D-01  2.66D+00  1.47D+00  1.44D+00  1.74D+00
                    CP:  1.38D+00
 FoFJK:  IHMeth= 1 ICntrl=     0 DoSepK=T KAlg= 1 I1Cent= 0 FoldK=F
 E= -40.8659462751245     Delta-E=       -0.000001048492 Rises=F Damp=F
 DIIS: error= 3.54D-05 at cycle   7 NSaved=   7.
 NSaved= 7 IEnMin= 7 EnMin= -40.8659462751245     IErMin= 7 ErrMin= 3.54D-05
 ErrMax= 3.54D-05 EMaxC= 1.00D-01 BMatC= 9.28D-08 BMatP= 9.96D-07
 IDIUse=1 WtCom= 1.00D+00 WtEn= 0.00D+00
 Coeff-Com: -0.169D-03-0.132D-02-0.659D-02 0.489D-01-0.467D-01-0.410D+00
 Coeff-Com:  0.142D+01
 Coeff:     -0.169D-03-0.132D-02-0.659D-02 0.489D-01-0.467D-01-0.410D+00
 Coeff:      0.142D+01
 Gap=     0.419 Goal=   None    Shift=    0.000
 Gap=     0.538 Goal=   None    Shift=    0.000
 RMSDP=4.63D-06 MaxDP=1.14D-04 DE=-1.05D-06 OVMax= 3.21D-04

 Cycle   8  Pass 1  IDiag  1:
 RMSU=  1.18D-06    CP:  6.46D-01  2.66D+00  1.47D+00  1.44D+00  1.77D+00
                    CP:  1.50D+00  1.66D+00
 FoFJK:  IHMeth= 1 ICntrl=     0 DoSepK=T KAlg= 1 I1Cent= 0 FoldK=F
 E= -40.8659463787212     Delta-E=       -0.000000103597 Rises=F Damp=F
 DIIS: error= 1.13D-05 at cycle   8 NSaved=   8.
 NSaved= 8 IEnMin= 8 EnMin= -40.8659463787212     IErMin= 8 ErrMin= 1.13D-05
 ErrMax= 1.13D-05 EMaxC= 1.00D-01 BMatC= 6.65D-09 BMatP= 9.28D-08
 IDIUse=1 WtCom= 1.00D+00 WtEn= 0.00D+00
 Coeff-Com:  0.110D-03 0.171D-03 0.151D-02-0.109D-01 0.192D-01 0.922D-01
 Coeff-Com: -0.579D+00 0.148D+01
 Coeff:      0.110D-03 0.171D-03 0.151D-02-0.109D-01 0.192D-01 0.922D-01
 Coeff:     -0.579D+00 0.148D+01
 Gap=     0.419 Goal=   None    Shift=    0.000
 Gap=     0.538 Goal=   None    Shift=    0.000
 RMSDP=1.50D-06 MaxDP=3.98D-05 DE=-1.04D-07 OVMax= 9.29D-05

 Cycle   9  Pass 1  IDiag  1:
 RMSU=  3.50D-07    CP:  6.46D-01  2.66D+00  1.47D+00  1.44D+00  1.78D+00
                    CP:  1.53D+00  1.81D+00  1.68D+00
 FoFJK:  IHMeth= 1 ICntrl=     0 DoSepK=T KAlg= 1 I1Cent= 0 FoldK=F
 E= -40.8659463866234     Delta-E=       -0.000000007902 Rises=F Damp=F
 DIIS: error= 3.38D-06 at cycle   9 NSaved=   9.
 NSaved= 9 IEnMin= 9 EnMin= -40.8659463866234     IErMin= 9 ErrMin= 3.38D-06
 ErrMax= 3.38D-06 EMaxC= 1.00D-01 BMatC= 3.66D-10 BMatP= 6.65D-09
 IDIUse=1 WtCom= 1.00D+00 WtEn= 0.00D+00
 Coeff-Com: -0.363D-04-0.596D-05-0.323D-03 0.188D-02-0.458D-02-0.148D-01
 Coeff-Com:  0.143D+00-0.564D+00 0.144D+01
 Coeff:     -0.363D-04-0.596D-05-0.323D-03 0.188D-02-0.458D-02-0.148D-01
 Coeff:      0.143D+00-0.564D+00 0.144D+01
 Gap=     0.419 Goal=   None    Shift=    0.000
 Gap=     0.538 Goal=   None    Shift=    0.000
 RMSDP=4.35D-07 MaxDP=1.30D-05 DE=-7.90D-09 OVMax= 2.40D-05

 Cycle  10  Pass 1  IDiag  1:
 RMSU=  8.92D-08    CP:  6.46D-01  2.66D+00  1.47D+00  1.44D+00  1.78D+00
                    CP:  1.54D+00  1.81D+00  1.86D+00  1.52D+00
 FoFJK:  IHMeth= 1 ICntrl=     0 DoSepK=T KAlg= 1 I1Cent= 0 FoldK=F
 E= -40.8659463871120     Delta-E=       -0.000000000489 Rises=F Damp=F
 DIIS: error= 8.96D-07 at cycle  10 NSaved=  10.
 NSaved=10 IEnMin=10 EnMin= -40.8659463871120     IErMin=10 ErrMin= 8.96D-07
 ErrMax= 8.96D-07 EMaxC= 1.00D-01 BMatC= 2.68D-11 BMatP= 3.66D-10
 IDIUse=1 WtCom= 1.00D+00 WtEn= 0.00D+00
 Coeff-Com:  0.563D-05-0.147D-05 0.120D-03-0.386D-03 0.581D-03 0.204D-02
 Coeff-Com: -0.196D-01 0.994D-01-0.460D+00 0.138D+01
 Coeff:      0.563D-05-0.147D-05 0.120D-03-0.386D-03 0.581D-03 0.204D-02
 Coeff:     -0.196D-01 0.994D-01-0.460D+00 0.138D+01
 Gap=     0.419 Goal=   None    Shift=    0.000
 Gap=     0.538 Goal=   None    Shift=    0.000
 RMSDP=1.35D-07 MaxDP=5.32D-06 DE=-4.89D-10 OVMax= 6.40D-06

 Cycle  11  Pass 1  IDiag  1:
 RMSU=  1.39D-08    CP:  6.46D-01  2.66D+00  1.47D+00  1.44D+00  1.78D+00
                    CP:  1.54D+00  1.80D+00  1.89D+00  1.61D+00  1.54D+00
 FoFJK:  IHMeth= 1 ICntrl=     0 DoSepK=T KAlg= 1 I1Cent= 0 FoldK=F
 E= -40.8659463871541     Delta-E=       -0.000000000042 Rises=F Damp=F
 DIIS: error= 2.48D-07 at cycle  11 NSaved=  11.
 NSaved=11 IEnMin=11 EnMin= -40.8659463871541     IErMin=11 ErrMin= 2.48D-07
 ErrMax= 2.48D-07 EMaxC= 1.00D-01 BMatC= 3.58D-12 BMatP= 2.68D-11
 IDIUse=1 WtCom= 1.00D+00 WtEn= 0.00D+00
 Coeff-Com: -0.107D-05 0.632D-06-0.330D-04 0.691D-04-0.110D-04 0.417D-03
 Coeff-Com: -0.343D-02 0.612D-02 0.719D-01-0.637D+00 0.156D+01
 Coeff:     -0.107D-05 0.632D-06-0.330D-04 0.691D-04-0.110D-04 0.417D-03
 Coeff:     -0.343D-02 0.612D-02 0.719D-01-0.637D+00 0.156D+01
 Gap=     0.419 Goal=   None    Shift=    0.000
 Gap=     0.538 Goal=   None    Shift=    0.000
 RMSDP=3.18D-08 MaxDP=8.39D-07 DE=-4.21D-11 OVMax= 2.34D-06

 Cycle  12  Pass 1  IDiag  1:
 RMSU=  5.35D-09    CP:  6.46D-01  2.66D+00  1.47D+00  1.44D+00  1.78D+00
                    CP:  1.54D+00  1.80D+00  1.89D+00  1.62D+00  1.72D+00
                    CP:  1.72D+00
 FoFJK:  IHMeth= 1 ICntrl=     0 DoSepK=T KAlg= 1 I1Cent= 0 FoldK=F
 E= -40.8659463871580     Delta-E=       -0.000000000004 Rises=F Damp=F
 DIIS: error= 3.35D-08 at cycle  12 NSaved=  12.
 NSaved=12 IEnMin=12 EnMin= -40.8659463871580     IErMin=12 ErrMin= 3.35D-08
 ErrMax= 3.35D-08 EMaxC= 1.00D-01 BMatC= 2.24D-13 BMatP= 3.58D-12
 IDIUse=1 WtCom= 1.00D+00 WtEn= 0.00D+00
 Coeff-Com:  0.704D-07 0.261D-06 0.779D-05-0.248D-04 0.676D-05-0.151D-03
 Coeff-Com:  0.204D-02-0.928D-02 0.162D-01 0.968D-01-0.557D+00 0.145D+01
 Coeff:      0.704D-07 0.261D-06 0.779D-05-0.248D-04 0.676D-05-0.151D-03
 Coeff:      0.204D-02-0.928D-02 0.162D-01 0.968D-01-0.557D+00 0.145D+01
 Gap=     0.419 Goal=   None    Shift=    0.000
 Gap=     0.538 Goal=   None    Shift=    0.000
 RMSDP=6.86D-09 MaxDP=1.69D-07 DE=-3.90D-12 OVMax= 4.52D-07

 SCF Done:  E(ULC-B+HF-LYP) =  -40.8659463872     A.U. after   12 cycles
             Convg  =    0.6865D-08             -V/T =  2.0049
 <Sx>= 0.0000 <Sy>= 0.0000 <Sz>= 0.5000 <S**2>= 0.7603 S= 0.5052
 <L.S>= 0.000000000000E+00
 KE= 4.066763185372D+01 PE=-1.251227151583D+02 EE= 2.802876487529D+01
 Annihilation of the first spin contaminant:
 S**2 before annihilation     0.7603,   after     0.7500
 Leave Link  502 at Wed Nov  3 01:10:17 2010, MaxMem=  786432000 cpu:     281.3
 (Enter /share/apps/G09A02/g09/l601.exe)
 Copying SCF densities to generalized density rwf, IOpCl= 1 IROHF=0.

 **********************************************************************

            Population analysis using the SCF density.

 **********************************************************************

 Alpha  occ. eigenvalues --  -10.13781  -0.87596  -0.60080  -0.54538  -0.54538
 Alpha  occ. eigenvalues --   -0.35074
 Alpha virt. eigenvalues --    0.06785   0.09167   0.09167   0.10183   0.22042
 Alpha virt. eigenvalues --    0.22042   0.24395   0.28349   0.34781   0.34781
 Alpha virt. eigenvalues --    0.39778   0.40798   0.40798   0.46833   0.62519
 Alpha virt. eigenvalues --    0.62519   0.66154   0.70645   0.73287   0.73287
 Alpha virt. eigenvalues --    0.77237   0.81686   0.81686   0.90904   0.97120
 Alpha virt. eigenvalues --    1.07802   1.07802   1.10550   1.10550   1.21320
 Alpha virt. eigenvalues --    1.27240   1.27240   1.33368   1.40996   1.40996
 Alpha virt. eigenvalues --    1.55641   1.95586   2.02929   2.02929   2.07976
 Alpha virt. eigenvalues --    2.07976   2.19871   2.51676   2.66320   2.77862
 Alpha virt. eigenvalues --    2.77862   2.99732   3.07043   3.12176   3.12176
 Alpha virt. eigenvalues --    3.33396   3.42553   3.42553   3.65814   3.65814
 Alpha virt. eigenvalues --    3.67722   3.88065   3.88065   3.89070   4.06241
 Alpha virt. eigenvalues --    4.24326   4.24326   4.30899   4.30899   4.49308
 Alpha virt. eigenvalues --    4.49308   4.52725   4.67121   5.22488   5.67990
 Alpha virt. eigenvalues --    5.82654   5.82654   7.26169   7.26170   7.83077
 Alpha virt. eigenvalues --    7.83077   7.96846  24.23007
  Beta  occ. eigenvalues --  -10.13025  -0.85568  -0.54021  -0.54021  -0.53463
  Beta virt. eigenvalues --    0.00360   0.07634   0.09083   0.09083   0.10189
  Beta virt. eigenvalues --    0.22289   0.22289   0.25099   0.29599   0.35097
  Beta virt. eigenvalues --    0.35097   0.40703   0.40809   0.40809   0.50206
  Beta virt. eigenvalues --    0.63470   0.63470   0.69618   0.71258   0.75198
  Beta virt. eigenvalues --    0.75198   0.77274   0.82582   0.82582   0.91622
  Beta virt. eigenvalues --    0.97105   1.08419   1.08420   1.11224   1.11224
  Beta virt. eigenvalues --    1.24020   1.27482   1.27483   1.34018   1.41526
  Beta virt. eigenvalues --    1.41526   1.56600   1.97268   2.04545   2.04545
  Beta virt. eigenvalues --    2.08694   2.08694   2.22730   2.56511   2.71927
  Beta virt. eigenvalues --    2.78608   2.78608   3.02475   3.07341   3.13674
  Beta virt. eigenvalues --    3.13674   3.34374   3.43568   3.43568   3.66407
  Beta virt. eigenvalues --    3.66407   3.69909   3.92344   3.98680   3.98680
  Beta virt. eigenvalues --    4.08501   4.24073   4.24073   4.30661   4.30661
  Beta virt. eigenvalues --    4.49818   4.49818   4.55840   4.67334   5.23412
  Beta virt. eigenvalues --    5.70688   5.83040   5.83041   7.28655   7.28655
  Beta virt. eigenvalues --    7.84338   7.84338   8.00222  24.24019
          Condensed to atoms (all electrons):
              1          2          3          4          5          6
     1  C    5.179069   0.320640   0.405278   0.405279   0.405279  -0.085046
     2  H    0.320640   0.527381  -0.013002  -0.013004  -0.013004   0.040907
     3  H    0.405278  -0.013002   0.463231  -0.017553  -0.017553   0.001003
     4  H    0.405279  -0.013004  -0.017553   0.463225  -0.017552   0.001003
     5  H    0.405279  -0.013004  -0.017553  -0.017552   0.463225   0.001003
     6  H   -0.085046   0.040907   0.001003   0.001003   0.001003   1.096510
 Mulliken atomic charges:
              1
     1  C   -0.630500
     2  H    0.150083
     3  H    0.178595
     4  H    0.178601
     5  H    0.178601
     6  H   -0.055380
 Sum of Mulliken atomic charges =   0.00000
 Mulliken charges with hydrogens summed into heavy atoms:
              1
     1  C    0.000000
 Sum of Mulliken charges with hydrogens summed into heavy atoms =   0.00000
          Atomic-Atomic Spin Densities.
              1          2          3          4          5          6
     1  C    0.474743   0.065832  -0.001501  -0.001502  -0.001502  -0.122842
     2  H    0.065832  -0.129914   0.001495   0.001495   0.001495  -0.106090
     3  H   -0.001501   0.001495  -0.009930   0.000949   0.000949   0.002984
     4  H   -0.001502   0.001495   0.000949  -0.009929   0.000949   0.002984
     5  H   -0.001502   0.001495   0.000949   0.000949  -0.009929   0.002984
     6  H   -0.122842  -0.106090   0.002984   0.002984   0.002984   0.987603
 Mulliken atomic spin densities:
              1
     1  C    0.413228
     2  H   -0.165687
     3  H   -0.005055
     4  H   -0.005055
     5  H   -0.005055
     6  H    0.767623
 Sum of Mulliken atomic spin densities =   1.00000
 Electronic spatial extent (au):  <R**2>=             59.6918
 Charge=              0.0000 electrons
 Dipole moment (field-independent basis, Debye):
    X=              0.0000    Y=              0.0000    Z=             -0.6827  Tot=              0.6827
 Quadrupole moment (field-independent basis, Debye-Ang):
   XX=             -9.6799   YY=             -9.6799   ZZ=            -12.0667
   XY=              0.0000   XZ=              0.0000   YZ=              0.0000
 Traceless Quadrupole moment (field-independent basis, Debye-Ang):
   XX=              0.7956   YY=              0.7956   ZZ=             -1.5912
   XY=              0.0000   XZ=              0.0000   YZ=              0.0000
 Octapole moment (field-independent basis, Debye-Ang**2):
  XXX=              0.7820  YYY=              0.0000  ZZZ=            -14.8353  XYY=             -0.7820
  XXY=              0.0000  XXZ=             -3.9910  XZZ=              0.0000  YZZ=              0.0000
  YYZ=             -3.9910  XYZ=              0.0000
 Hexadecapole moment (field-independent basis, Debye-Ang**3):
 XXXX=            -17.9362 YYYY=            -17.9362 ZZZZ=            -78.1351 XXXY=              0.0000
 XXXZ=             -0.3923 YYYX=              0.0000 YYYZ=              0.0000 ZZZX=              0.0000
 ZZZY=              0.0000 XXYY=             -5.9787 XXZZ=            -14.4441 YYZZ=            -14.4441
 XXYZ=              0.0000 YYXZ=              0.3923 ZZXY=              0.0000
 N-N= 1.556037204209D+01 E-N=-1.852743689843D+02  KE= 6.049876574223D+01
                          Isotropic Fermi Contact Couplings
        Atom                 a.u.       MegaHertz       Gauss      10(-4) cm-1
     1  C(13)              0.16070     180.66309      64.46508      60.26272
     2  H(1)              -0.03598    -160.81622     -57.38323     -53.64252
     3  H(1)              -0.00413     -18.44892      -6.58303      -6.15390
     4  H(1)              -0.00413     -18.44894      -6.58304      -6.15390
     5  H(1)              -0.00413     -18.44894      -6.58304      -6.15390
     6  H(1)               0.23072    1031.30009     367.99351     344.00468
 --------------------------------------------------------
       Center         ----  Spin Dipole Couplings  ----
                      3XX-RR        3YY-RR        3ZZ-RR
 --------------------------------------------------------
     1   Atom       -0.269533     -0.269534      0.539067
     2   Atom       -0.119603     -0.119603      0.239207
     3   Atom        0.026923     -0.033012      0.006089
     4   Atom       -0.018028      0.011939      0.006089
     5   Atom       -0.018028      0.011939      0.006089
     6   Atom        0.007929      0.007929     -0.015858
 --------------------------------------------------------
                        XY            XZ            YZ
 --------------------------------------------------------
     1   Atom        0.000000      0.000000      0.000000
     2   Atom        0.000000      0.000000      0.000000
     3   Atom        0.000000     -0.016983      0.000000
     4   Atom        0.025953      0.008492      0.014708
     5   Atom       -0.025953      0.008492     -0.014708
     6   Atom        0.000000      0.000000      0.000000
 --------------------------------------------------------


 ---------------------------------------------------------------------------------
              Anisotropic Spin Dipole Couplings in Principal Axis System
 ---------------------------------------------------------------------------------

       Atom             a.u.   MegaHertz   Gauss  10(-4) cm-1        Axes

              Baa    -0.2695   -36.169   -12.906   -12.065  0.0000  1.0000  0.0000
     1 C(13)  Bbb    -0.2695   -36.169   -12.906   -12.065  1.0000  0.0000  0.0000
              Bcc     0.5391    72.338    25.812    24.129  0.0000  0.0000  1.0000
 
              Baa    -0.1196   -63.815   -22.771   -21.286  1.0000  0.0000  0.0000
     2 H(1)   Bbb    -0.1196   -63.815   -22.771   -21.286  0.0000  1.0000  0.0000
              Bcc     0.2392   127.629    45.541    42.573  0.0000  0.0000  1.0000
 
              Baa    -0.0330   -17.613    -6.285    -5.875  0.0000  1.0000  0.0000
     3 H(1)   Bbb    -0.0034    -1.824    -0.651    -0.608  0.4884  0.0000  0.8726
              Bcc     0.0364    19.437     6.936     6.483  0.8726  0.0000 -0.4884
 
              Baa    -0.0330   -17.613    -6.285    -5.875  0.8660 -0.5000  0.0000
     4 H(1)   Bbb    -0.0034    -1.824    -0.651    -0.608 -0.2442 -0.4230  0.8726
              Bcc     0.0364    19.437     6.936     6.483  0.4363  0.7557  0.4884
 
              Baa    -0.0330   -17.613    -6.285    -5.875  0.8660  0.5000  0.0000
     5 H(1)   Bbb    -0.0034    -1.824    -0.651    -0.608 -0.2442  0.4230  0.8726
              Bcc     0.0364    19.437     6.936     6.483 -0.4363  0.7557 -0.4884
 
              Baa    -0.0159    -8.461    -3.019    -2.822  0.0000  0.0000  1.0000
     6 H(1)   Bbb     0.0079     4.230     1.510     1.411  1.0000  0.0000  0.0000
              Bcc     0.0079     4.230     1.510     1.411  0.0000  1.0000  0.0000
 

 ---------------------------------------------------------------------------------

 No NMR shielding tensors so no spin-rotation constants.
 Leave Link  601 at Wed Nov  3 01:10:18 2010, MaxMem=  786432000 cpu:       3.9
 (Enter /share/apps/G09A02/g09/l9999.exe)
 1\1\GINC-COMPUTE-0-7\SP\ULC-BLYP\6-311+G(3df,2p)\C1H5(2)\WENXINZY\03-N
 ov-2010\0\\#p lc-blyp/6-311+g(3df,2p) nosymm scf=tight\\5 H_CH4\\0,2\C
 \H,1,1.2335773\H,1,1.0874197,2,106.2589177\H,1,1.0874197,2,106.2589177
 ,3,120.,0\H,1,1.0874197,2,106.2589177,3,-120.,0\H,2,1.0254984,1,180.,3
 ,0.,0\\Version=EM64L-G09RevA.02\HF=-40.8659464\S2=0.760337\S2-1=0.\S2A
 =0.750013\RMSD=6.865e-09\Dipole=0.0000016,0.,-0.2685841\Quadrupole=0.5
 915203,0.5915224,-1.1830427,0.,0.0000009,0.\PG=C03V [C3(H1H1C1),3SGV(H
 1)]\\@


 HO!  SUCH BUGS AND GOBLINS IN MY LIFE!

                            -- HAMLET, ACT 5, SCENE 2
 Job cpu time:  0 days  0 hours  4 minutes 55.0 seconds.
 File lengths (MBytes):  RWF=      9 Int=      0 D2E=      0 Chk=      1 Scr=      1
 Normal termination of Gaussian 09 at Wed Nov  3 01:10:18 2010.
