 Entering Gaussian System, Link 0=/share/apps/G09A02/g09/g09
 Input=./.script12553/Job_H2_CH3_23.com
 Output=./.script12553/Job_H2_CH3_23.log
 Initial command:
 /share/apps/G09A02/g09/l1.exe /state/partition1/wenxinzy/scratch/Gau-19903.inp -scrdir=/state/partition1/wenxinzy/scratch/
 Default is to use a total of   8 processors:
                                8 via shared-memory
                                1 via Linda
 Entering Link 1 = /share/apps/G09A02/g09/l1.exe PID=     19904.
  
 Copyright (c) 1988,1990,1992,1993,1995,1998,2003,2009, Gaussian, Inc.
                  All Rights Reserved.
  
 This is part of the Gaussian(R) 09 program.  It is based on
 the Gaussian(R) 03 system (copyright 2003, Gaussian, Inc.),
 the Gaussian(R) 98 system (copyright 1998, Gaussian, Inc.),
 the Gaussian(R) 94 system (copyright 1995, Gaussian, Inc.),
 the Gaussian 92(TM) system (copyright 1992, Gaussian, Inc.),
 the Gaussian 90(TM) system (copyright 1990, Gaussian, Inc.),
 the Gaussian 88(TM) system (copyright 1988, Gaussian, Inc.),
 the Gaussian 86(TM) system (copyright 1986, Carnegie Mellon
 University), and the Gaussian 82(TM) system (copyright 1983,
 Carnegie Mellon University). Gaussian is a federally registered
 trademark of Gaussian, Inc.
  
 This software contains proprietary and confidential information,
 including trade secrets, belonging to Gaussian, Inc.
  
 This software is provided under written license and may be
 used, copied, transmitted, or stored only in accord with that
 written license.
  
 The following legend is applicable only to US Government
 contracts under FAR:
  
                    RESTRICTED RIGHTS LEGEND
  
 Use, reproduction and disclosure by the US Government is
 subject to restrictions as set forth in subparagraphs (a)
 and (c) of the Commercial Computer Software - Restricted
 Rights clause in FAR 52.227-19.
  
 Gaussian, Inc.
 340 Quinnipiac St., Bldg. 40, Wallingford CT 06492
  
  
 ---------------------------------------------------------------
 Warning -- This program may not be used in any manner that
 competes with the business of Gaussian, Inc. or will provide
 assistance to any competitor of Gaussian, Inc.  The licensee
 of this program is prohibited from giving any competitor of
 Gaussian, Inc. access to this program.  By using this program,
 the user acknowledges that Gaussian, Inc. is engaged in the
 business of creating and licensing software in the field of
 computational chemistry and represents and warrants to the
 licensee that it is not a competitor of Gaussian, Inc. and that
 it will not use this program in any manner prohibited above.
 ---------------------------------------------------------------
  

 Cite this work as:
 Gaussian 09, Revision A.02,
 M. J. Frisch, G. W. Trucks, H. B. Schlegel, G. E. Scuseria, 
 M. A. Robb, J. R. Cheeseman, G. Scalmani, V. Barone, B. Mennucci, 
 G. A. Petersson, H. Nakatsuji, M. Caricato, X. Li, H. P. Hratchian, 
 A. F. Izmaylov, J. Bloino, G. Zheng, J. L. Sonnenberg, M. Hada, 
 M. Ehara, K. Toyota, R. Fukuda, J. Hasegawa, M. Ishida, T. Nakajima, 
 Y. Honda, O. Kitao, H. Nakai, T. Vreven, J. A. Montgomery, Jr., 
 J. E. Peralta, F. Ogliaro, M. Bearpark, J. J. Heyd, E. Brothers, 
 K. N. Kudin, V. N. Staroverov, R. Kobayashi, J. Normand, 
 K. Raghavachari, A. Rendell, J. C. Burant, S. S. Iyengar, J. Tomasi, 
 M. Cossi, N. Rega, J. M. Millam, M. Klene, J. E. Knox, J. B. Cross, 
 V. Bakken, C. Adamo, J. Jaramillo, R. Gomperts, R. E. Stratmann, 
 O. Yazyev, A. J. Austin, R. Cammi, C. Pomelli, J. W. Ochterski, 
 R. L. Martin, K. Morokuma, V. G. Zakrzewski, G. A. Voth, 
 P. Salvador, J. J. Dannenberg, S. Dapprich, A. D. Daniels, 
 O. Farkas, J. B. Foresman, J. V. Ortiz, J. Cioslowski, 
 and D. J. Fox, Gaussian, Inc., Wallingford CT, 2009.
 
 ******************************************
 Gaussian 09:  EM64L-G09RevA.02 11-Jun-2009
                 3-Nov-2010 
 ******************************************
 %chk=/state/partition1/wenxinzy/scratch/H2_CH3_23.chk
 %nproc=8
 Will use up to    8 processors via shared memory.
 %mem=6000mb
 -------------------------------------------
 #p lc-blyp/6-311+g(3df,2p) nosymm scf=tight
 -------------------------------------------
 1/38=1/1;
 2/12=2,15=1,17=6,18=5,40=1/2;
 3/5=4,6=6,7=216,11=2,16=1,25=1,30=1,74=1000402/1,2,3;
 4//1;
 5/5=2,32=2,38=5/2;
 6/7=2,8=2,9=2,10=2,28=1/1;
 99/5=1,9=1/99;
 Leave Link    1 at Wed Nov  3 01:49:02 2010, MaxMem=  786432000 cpu:       0.3
 (Enter /share/apps/G09A02/g09/l101.exe)
 ---------
 24 H2+CH3
 ---------
 Symbolic Z-matrix:
 Charge =  0 Multiplicity = 2
 C
 H1                   C    R1
 H2                   C    R2       H1   A1
 H3                   C    R2       H1   A1       H2    120.     0
 H4                   C    R2       H1   A1       H2   -120.     0
 H5                   H1   R3       C     180.     H2    0.       0
       Variables:
  R1                    2.6743                   
  R2                    1.07927                  
  A1                   90.27986                  
  R3                    0.74442                  
 
 NAtoms=      6 NQM=      6 NQMF=      0 NMic=      0 NMicF=      0 NTot=      6.
                    Isotopes and Nuclear Properties:
 (Nuclear quadrupole moments (NQMom) in fm**2, nuclear magnetic moments (NMagM)
  in nuclear magnetons)

  Atom         1           2           3           4           5           6
 IAtWgt=          12           1           1           1           1           1
 AtmWgt=  12.0000000   1.0078250   1.0078250   1.0078250   1.0078250   1.0078250
 NucSpn=           0           1           1           1           1           1
 AtZEff=   0.0000000   0.0000000   0.0000000   0.0000000   0.0000000   0.0000000
 NQMom=    0.0000000   0.0000000   0.0000000   0.0000000   0.0000000   0.0000000
 NMagM=    0.0000000   2.7928460   2.7928460   2.7928460   2.7928460   2.7928460
 Leave Link  101 at Wed Nov  3 01:49:02 2010, MaxMem=  786432000 cpu:       1.1
 (Enter /share/apps/G09A02/g09/l202.exe)
                          Input orientation:                          
 ---------------------------------------------------------------------
 Center     Atomic      Atomic             Coordinates (Angstroms)
 Number     Number       Type             X           Y           Z
 ---------------------------------------------------------------------
      1          6           0        0.000000    0.000000    0.000000
      2          1           0        0.000000    0.000000    2.674297
      3          1           0        1.079257    0.000000   -0.005272
      4          1           0       -0.539628   -0.934664   -0.005272
      5          1           0       -0.539628    0.934664   -0.005272
      6          1           0        0.000000    0.000000    3.418718
 ---------------------------------------------------------------------
                    Distance matrix (angstroms):
                    1          2          3          4          5
     1  C    0.000000
     2  H    2.674297   0.000000
     3  H    1.079270   2.888751   0.000000
     4  H    1.079270   2.888751   1.869328   0.000000
     5  H    1.079270   2.888751   1.869328   1.869328   0.000000
     6  H    3.418718   0.744421   3.590055   3.590055   3.590055
                    6
     6  H    0.000000
 Symmetry turned off by external request.
 Stoichiometry    CH5(2)
 Framework group  C3V[C3(HHC),3SGV(H)]
 Deg. of freedom     4
 Full point group                 C3V     NOp   6
 Rotational constants (GHZ):    143.5030694     27.2495766     27.2495766
 Leave Link  202 at Wed Nov  3 01:49:02 2010, MaxMem=  786432000 cpu:       0.0
 (Enter /share/apps/G09A02/g09/l301.exe)
 Standard basis: 6-311+G(3df,2p) (5D, 7F)
 Ernie: Thresh=  0.10000D-02 Tol=  0.10000D-05 Strict=F.
 Integral buffers will be    131072 words long.
 Raffenetti 2 integral format.
 Two-electron integral symmetry is turned off.
    84 basis functions,   113 primitive gaussians,    90 cartesian basis functions
     6 alpha electrons        5 beta electrons
       nuclear repulsion energy        13.4934382834 Hartrees.
 IExCor=10402 DFT=T Ex=LC-B+HF Corr=LYP ExCW=0 ScaHFX=  1.000000
 ScaDFX=  1.000000  1.000000  1.000000  1.000000 ScalE2=  1.000000  1.000000
 IRadAn=      0 IRanWt=     -1 IRanGd=            0 ICorTp=0
  HFx wShort=  0.000000 wLong=  0.470000 cFull=  0.000000 cShort=  0.000000 cLong=  1.000000
  DFx wShort=  0.000000 wLong=  0.470000 cFull=  0.000000 cShort=  0.000000 cLong=  1.000000
 NAtoms=    6 NActive=    6 NUniq=    6 SFac= 7.50D-01 NAtFMM=   80 NAOKFM=F Big=F
 Leave Link  301 at Wed Nov  3 01:49:03 2010, MaxMem=  786432000 cpu:       0.6
 (Enter /share/apps/G09A02/g09/l302.exe)
 NPDir=0 NMtPBC=     1 NCelOv=     1 NCel=       1 NClECP=     1 NCelD=      1
         NCelK=      1 NCelE2=     1 NClLst=     1 CellRange=     0.0.
 One-electron integrals computed using PRISM.
 NBasis=    84 RedAO= T  NBF=    84
 NBsUse=    84 1.00D-06 NBFU=    84
 Precomputing XC quadrature grid using
 IXCGrd= 2 IRadAn=           0 IRanWt=          -1 IRanGd=           0 AccXCQ= 1.00D-10.
 NRdTot=     384 NPtTot=       48302 NUsed=       51081 NTot=       51113
 NSgBfM=    90    90    90    90    90 NAtAll=     6     6.
 Leave Link  302 at Wed Nov  3 01:49:03 2010, MaxMem=  786432000 cpu:       2.6
 (Enter /share/apps/G09A02/g09/l303.exe)
 DipDrv:  MaxL=1.
 Leave Link  303 at Wed Nov  3 01:49:03 2010, MaxMem=  786432000 cpu:       0.4
 (Enter /share/apps/G09A02/g09/l401.exe)
 Harris functional with IExCor=10402 diagonalized for initial guess.
 ExpMin= 4.38D-02 ExpMax= 4.56D+03 ExpMxC= 6.82D+02 IAcc=2 IRadAn=         0 AccDes= 0.00D+00
 HarFok:  IExCor=10402 AccDes= 0.00D+00 IRadAn=         0 IDoV= 1
 ScaDFX=  1.000000  1.000000  1.000000  1.000000
 FoFCou: FMM=F IPFlag=           0 FMFlag=      100000 FMFlg1=           0
         NFxFlg=           0 DoJE=T BraDBF=F KetDBF=T FulRan=T
         Omega=  0.000000  0.000000  1.000000  0.000000  0.000000 ICntrl=     500 IOpCl=  0
         NMat0=    1 NMatS0=    1 NMatT0=    0 NMatD0=    1 NMtDS0=    0 NMtDT0=    0
         I1Cent=           4 NGrid=           0.
 Symmetry not used in FoFCou.
 Harris En= -38.5356756883175    
 Initial guess <Sx>= 0.0000 <Sy>= 0.0000 <Sz>= 0.5000 <S**2>= 0.7500 S= 0.5000
 Leave Link  401 at Wed Nov  3 01:49:04 2010, MaxMem=  786432000 cpu:       3.6
 (Enter /share/apps/G09A02/g09/l502.exe)
 UHF open shell SCF:
 Requested convergence on RMS density matrix=1.00D-08 within 128 cycles.
 Requested convergence on MAX density matrix=1.00D-06.
 Requested convergence on             energy=1.00D-06.
 No special actions if energy rises.
 Using DIIS extrapolation, IDIIS=  1040.
 Two-electron integral symmetry not used.
        51014 words used for storage of precomputed grid.
 IEnd=       94732 IEndB=       94732 NGot=   786432000 MDV=   786362099
 LenX=   786362099 LenY=   786353558
 Fock matrices will be formed incrementally for  20 cycles.

 Cycle   1  Pass 1  IDiag  1:
 FoFJK:  IHMeth= 1 ICntrl=     0 DoSepK=T KAlg= 1 I1Cent= 0 FoldK=F
 FoFCou: FMM=F IPFlag=           0 FMFlag=      100000 FMFlg1=           0
         NFxFlg=           0 DoJE=T BraDBF=F KetDBF=F FulRan=T
         Omega=  0.000000  0.000000  1.000000  0.000000  0.000000 ICntrl=     500 IOpCl=  0
         NMat0=    1 NMatS0=    1 NMatT0=    0 NMatD0=    1 NMtDS0=    0 NMtDT0=    0
         I1Cent=           0 NGrid=           0.
 Symmetry not used in FoFCou.
 E= -40.8559312341083    
 DIIS: error= 2.03D-02 at cycle   1 NSaved=   1.
 NSaved= 1 IEnMin= 1 EnMin= -40.8559312341083     IErMin= 1 ErrMin= 2.03D-02
 ErrMax= 2.03D-02 EMaxC= 1.00D-01 BMatC= 6.15D-02 BMatP= 6.15D-02
 IDIUse=3 WtCom= 7.97D-01 WtEn= 2.03D-01
 Coeff-Com:  0.100D+01
 Coeff-En:   0.100D+01
 Coeff:      0.100D+01
 Gap=     0.390 Goal=   None    Shift=    0.000
 Gap=     0.619 Goal=   None    Shift=    0.000
 GapD=    0.390 DampG=1.000 DampE=0.500 DampFc=0.5000 IDamp=-1.
 Damping current iteration by 5.00D-01
 RMSDP=1.51D-03 MaxDP=6.50D-02              OVMax= 5.30D-02

 Cycle   2  Pass 1  IDiag  1:
 RMSU=  5.58D-04    CP:  9.81D-01
 FoFJK:  IHMeth= 1 ICntrl=     0 DoSepK=T KAlg= 1 I1Cent= 0 FoldK=F
 E= -40.8647359309768     Delta-E=       -0.008804696869 Rises=F Damp=T
 DIIS: error= 9.14D-03 at cycle   2 NSaved=   2.
 NSaved= 2 IEnMin= 2 EnMin= -40.8647359309768     IErMin= 2 ErrMin= 9.14D-03
 ErrMax= 9.14D-03 EMaxC= 1.00D-01 BMatC= 9.91D-03 BMatP= 6.15D-02
 IDIUse=3 WtCom= 9.09D-01 WtEn= 9.14D-02
 Coeff-Com: -0.429D+00 0.143D+01
 Coeff-En:   0.000D+00 0.100D+01
 Coeff:     -0.390D+00 0.139D+01
 Gap=     0.430 Goal=   None    Shift=    0.000
 Gap=     0.566 Goal=   None    Shift=    0.000
 RMSDP=8.52D-04 MaxDP=2.41D-02 DE=-8.80D-03 OVMax= 4.34D-02

 Cycle   3  Pass 1  IDiag  1:
 RMSU=  4.92D-04    CP:  9.73D-01  1.91D+00
 FoFJK:  IHMeth= 1 ICntrl=     0 DoSepK=T KAlg= 1 I1Cent= 0 FoldK=F
 E= -40.8745911811005     Delta-E=       -0.009855250124 Rises=F Damp=F
 DIIS: error= 2.81D-03 at cycle   3 NSaved=   3.
 NSaved= 3 IEnMin= 3 EnMin= -40.8745911811005     IErMin= 3 ErrMin= 2.81D-03
 ErrMax= 2.81D-03 EMaxC= 1.00D-01 BMatC= 7.21D-04 BMatP= 9.91D-03
 IDIUse=3 WtCom= 9.72D-01 WtEn= 2.81D-02
 Coeff-Com: -0.632D-01-0.705D-01 0.113D+01
 Coeff-En:   0.000D+00 0.000D+00 0.100D+01
 Coeff:     -0.614D-01-0.685D-01 0.113D+01
 Gap=     0.433 Goal=   None    Shift=    0.000
 Gap=     0.565 Goal=   None    Shift=    0.000
 RMSDP=2.82D-04 MaxDP=9.89D-03 DE=-9.86D-03 OVMax= 2.17D-02

 Cycle   4  Pass 1  IDiag  1:
 RMSU=  7.30D-05    CP:  9.70D-01  2.19D+00  1.32D+00
 FoFJK:  IHMeth= 1 ICntrl=     0 DoSepK=T KAlg= 1 I1Cent= 0 FoldK=F
 E= -40.8751243906576     Delta-E=       -0.000533209557 Rises=F Damp=F
 DIIS: error= 1.21D-03 at cycle   4 NSaved=   4.
 NSaved= 4 IEnMin= 4 EnMin= -40.8751243906576     IErMin= 4 ErrMin= 1.21D-03
 ErrMax= 1.21D-03 EMaxC= 1.00D-01 BMatC= 5.64D-05 BMatP= 7.21D-04
 IDIUse=3 WtCom= 9.88D-01 WtEn= 1.21D-02
 Coeff-Com:  0.322D-01-0.509D-01-0.352D+00 0.137D+01
 Coeff-En:   0.000D+00 0.000D+00 0.000D+00 0.100D+01
 Coeff:      0.318D-01-0.503D-01-0.347D+00 0.137D+01
 Gap=     0.435 Goal=   None    Shift=    0.000
 Gap=     0.565 Goal=   None    Shift=    0.000
 RMSDP=1.10D-04 MaxDP=4.04D-03 DE=-5.33D-04 OVMax= 9.58D-03

 Cycle   5  Pass 1  IDiag  1:
 RMSU=  1.42D-05    CP:  9.69D-01  2.26D+00  1.45D+00  1.67D+00
 FoFJK:  IHMeth= 1 ICntrl=     0 DoSepK=T KAlg= 1 I1Cent= 0 FoldK=F
 E= -40.8751867010190     Delta-E=       -0.000062310361 Rises=F Damp=F
 DIIS: error= 2.25D-04 at cycle   5 NSaved=   5.
 NSaved= 5 IEnMin= 5 EnMin= -40.8751867010190     IErMin= 5 ErrMin= 2.25D-04
 ErrMax= 2.25D-04 EMaxC= 1.00D-01 BMatC= 3.68D-06 BMatP= 5.64D-05
 IDIUse=3 WtCom= 9.98D-01 WtEn= 2.25D-03
 Coeff-Com: -0.608D-02 0.212D-01 0.665D-01-0.526D+00 0.144D+01
 Coeff-En:   0.000D+00 0.000D+00 0.000D+00 0.000D+00 0.100D+01
 Coeff:     -0.606D-02 0.212D-01 0.663D-01-0.525D+00 0.144D+01
 Gap=     0.435 Goal=   None    Shift=    0.000
 Gap=     0.565 Goal=   None    Shift=    0.000
 RMSDP=2.39D-05 MaxDP=7.09D-04 DE=-6.23D-05 OVMax= 1.55D-03

 Cycle   6  Pass 1  IDiag  1:
 RMSU=  4.31D-06    CP:  9.69D-01  2.26D+00  1.46D+00  1.85D+00  1.69D+00
 FoFJK:  IHMeth= 1 ICntrl=     0 DoSepK=T KAlg= 1 I1Cent= 0 FoldK=F
 E= -40.8751900874892     Delta-E=       -0.000003386470 Rises=F Damp=F
 DIIS: error= 4.39D-05 at cycle   6 NSaved=   6.
 NSaved= 6 IEnMin= 6 EnMin= -40.8751900874892     IErMin= 6 ErrMin= 4.39D-05
 ErrMax= 4.39D-05 EMaxC= 1.00D-01 BMatC= 2.03D-07 BMatP= 3.68D-06
 IDIUse=1 WtCom= 1.00D+00 WtEn= 0.00D+00
 Coeff-Com: -0.568D-03-0.227D-02-0.271D-02 0.849D-01-0.428D+00 0.135D+01
 Coeff:     -0.568D-03-0.227D-02-0.271D-02 0.849D-01-0.428D+00 0.135D+01
 Gap=     0.435 Goal=   None    Shift=    0.000
 Gap=     0.565 Goal=   None    Shift=    0.000
 RMSDP=4.76D-06 MaxDP=9.76D-05 DE=-3.39D-06 OVMax= 2.30D-04

 Cycle   7  Pass 1  IDiag  1:
 RMSU=  1.41D-06    CP:  9.69D-01  2.26D+00  1.46D+00  1.86D+00  1.83D+00
                    CP:  1.70D+00
 FoFJK:  IHMeth= 1 ICntrl=     0 DoSepK=T KAlg= 1 I1Cent= 0 FoldK=F
 E= -40.8751902728459     Delta-E=       -0.000000185357 Rises=F Damp=F
 DIIS: error= 1.43D-05 at cycle   7 NSaved=   7.
 NSaved= 7 IEnMin= 7 EnMin= -40.8751902728459     IErMin= 7 ErrMin= 1.43D-05
 ErrMax= 1.43D-05 EMaxC= 1.00D-01 BMatC= 1.62D-08 BMatP= 2.03D-07
 IDIUse=1 WtCom= 1.00D+00 WtEn= 0.00D+00
 Coeff-Com:  0.811D-03-0.185D-02-0.508D-02 0.334D-01-0.585D-01-0.249D+00
 Coeff-Com:  0.128D+01
 Coeff:      0.811D-03-0.185D-02-0.508D-02 0.334D-01-0.585D-01-0.249D+00
 Coeff:      0.128D+01
 Gap=     0.435 Goal=   None    Shift=    0.000
 Gap=     0.565 Goal=   None    Shift=    0.000
 RMSDP=1.68D-06 MaxDP=3.61D-05 DE=-1.85D-07 OVMax= 8.16D-05

 Cycle   8  Pass 1  IDiag  1:
 RMSU=  2.83D-07    CP:  9.69D-01  2.26D+00  1.46D+00  1.86D+00  1.85D+00
                    CP:  1.97D+00  1.50D+00
 FoFJK:  IHMeth= 1 ICntrl=     0 DoSepK=T KAlg= 1 I1Cent= 0 FoldK=F
 E= -40.8751902879711     Delta-E=       -0.000000015125 Rises=F Damp=F
 DIIS: error= 1.86D-06 at cycle   8 NSaved=   8.
 NSaved= 8 IEnMin= 8 EnMin= -40.8751902879711     IErMin= 8 ErrMin= 1.86D-06
 ErrMax= 1.86D-06 EMaxC= 1.00D-01 BMatC= 5.63D-10 BMatP= 1.62D-08
 IDIUse=1 WtCom= 1.00D+00 WtEn= 0.00D+00
 Coeff-Com: -0.105D-05 0.250D-03 0.802D-03-0.899D-02 0.329D-01-0.534D-01
 Coeff-Com: -0.139D+00 0.117D+01
 Coeff:     -0.105D-05 0.250D-03 0.802D-03-0.899D-02 0.329D-01-0.534D-01
 Coeff:     -0.139D+00 0.117D+01
 Gap=     0.435 Goal=   None    Shift=    0.000
 Gap=     0.565 Goal=   None    Shift=    0.000
 RMSDP=2.98D-07 MaxDP=8.59D-06 DE=-1.51D-08 OVMax= 1.20D-05

 Cycle   9  Pass 1  IDiag  1:
 RMSU=  4.98D-08    CP:  9.69D-01  2.26D+00  1.46D+00  1.86D+00  1.85D+00
                    CP:  2.00D+00  1.61D+00  1.40D+00
 FoFJK:  IHMeth= 1 ICntrl=     0 DoSepK=T KAlg= 1 I1Cent= 0 FoldK=F
 E= -40.8751902883614     Delta-E=       -0.000000000390 Rises=F Damp=F
 DIIS: error= 7.21D-07 at cycle   9 NSaved=   9.
 NSaved= 9 IEnMin= 9 EnMin= -40.8751902883614     IErMin= 9 ErrMin= 7.21D-07
 ErrMax= 7.21D-07 EMaxC= 1.00D-01 BMatC= 2.90D-11 BMatP= 5.63D-10
 IDIUse=1 WtCom= 1.00D+00 WtEn= 0.00D+00
 Coeff-Com: -0.369D-04-0.141D-05-0.109D-03 0.173D-02-0.847D-02 0.259D-01
 Coeff-Com:  0.564D-03-0.343D+00 0.132D+01
 Coeff:     -0.369D-04-0.141D-05-0.109D-03 0.173D-02-0.847D-02 0.259D-01
 Coeff:      0.564D-03-0.343D+00 0.132D+01
 Gap=     0.435 Goal=   None    Shift=    0.000
 Gap=     0.565 Goal=   None    Shift=    0.000
 RMSDP=6.44D-08 MaxDP=1.53D-06 DE=-3.90D-10 OVMax= 4.16D-06

 Cycle  10  Pass 1  IDiag  1:
 RMSU=  2.03D-08    CP:  9.69D-01  2.26D+00  1.46D+00  1.86D+00  1.85D+00
                    CP:  2.00D+00  1.62D+00  1.48D+00  1.54D+00
 FoFJK:  IHMeth= 1 ICntrl=     0 DoSepK=T KAlg= 1 I1Cent= 0 FoldK=F
 E= -40.8751902883898     Delta-E=       -0.000000000028 Rises=F Damp=F
 DIIS: error= 3.43D-07 at cycle  10 NSaved=  10.
 NSaved=10 IEnMin=10 EnMin= -40.8751902883898     IErMin=10 ErrMin= 3.43D-07
 ErrMax= 3.43D-07 EMaxC= 1.00D-01 BMatC= 4.50D-12 BMatP= 2.90D-11
 IDIUse=1 WtCom= 1.00D+00 WtEn= 0.00D+00
 Coeff-Com:  0.276D-04-0.259D-04 0.322D-05-0.304D-03 0.255D-02-0.121D-01
 Coeff-Com:  0.113D-01 0.118D+00-0.822D+00 0.170D+01
 Coeff:      0.276D-04-0.259D-04 0.322D-05-0.304D-03 0.255D-02-0.121D-01
 Coeff:      0.113D-01 0.118D+00-0.822D+00 0.170D+01
 Gap=     0.435 Goal=   None    Shift=    0.000
 Gap=     0.565 Goal=   None    Shift=    0.000
 RMSDP=3.07D-08 MaxDP=8.36D-07 DE=-2.84D-11 OVMax= 2.12D-06

 Cycle  11  Pass 1  IDiag  1:
 RMSU=  7.43D-09    CP:  9.69D-01  2.26D+00  1.46D+00  1.86D+00  1.85D+00
                    CP:  2.00D+00  1.62D+00  1.49D+00  1.80D+00  1.83D+00
 FoFJK:  IHMeth= 1 ICntrl=     0 DoSepK=T KAlg= 1 I1Cent= 0 FoldK=F
 E= -40.8751902883967     Delta-E=       -0.000000000007 Rises=F Damp=F
 DIIS: error= 9.41D-08 at cycle  11 NSaved=  11.
 NSaved=11 IEnMin=11 EnMin= -40.8751902883967     IErMin=11 ErrMin= 9.41D-08
 ErrMax= 9.41D-08 EMaxC= 1.00D-01 BMatC= 3.71D-13 BMatP= 4.50D-12
 IDIUse=1 WtCom= 1.00D+00 WtEn= 0.00D+00
 Coeff-Com: -0.762D-05 0.123D-04 0.103D-04-0.101D-03 0.815D-04 0.151D-02
 Coeff-Com: -0.514D-02-0.857D-03 0.152D+00-0.634D+00 0.149D+01
 Coeff:     -0.762D-05 0.123D-04 0.103D-04-0.101D-03 0.815D-04 0.151D-02
 Coeff:     -0.514D-02-0.857D-03 0.152D+00-0.634D+00 0.149D+01
 Gap=     0.435 Goal=   None    Shift=    0.000
 Gap=     0.565 Goal=   None    Shift=    0.000
 RMSDP=9.23D-09 MaxDP=3.11D-07 DE=-6.91D-12 OVMax= 6.41D-07

 SCF Done:  E(ULC-B+HF-LYP) =  -40.8751902884     A.U. after   11 cycles
             Convg  =    0.9234D-08             -V/T =  2.0049
 <Sx>= 0.0000 <Sy>= 0.0000 <Sz>= 0.5000 <S**2>= 0.7536 S= 0.5018
 <L.S>= 0.000000000000E+00
 KE= 4.067762975548D+01 PE=-1.210398016060D+02 EE= 2.599354327878D+01
 Annihilation of the first spin contaminant:
 S**2 before annihilation     0.7536,   after     0.7500
 Leave Link  502 at Wed Nov  3 01:49:36 2010, MaxMem=  786432000 cpu:     256.1
 (Enter /share/apps/G09A02/g09/l601.exe)
 Copying SCF densities to generalized density rwf, IOpCl= 1 IROHF=0.

 **********************************************************************

            Population analysis using the SCF density.

 **********************************************************************

 Alpha  occ. eigenvalues --  -10.14739  -0.85469  -0.56420  -0.55919  -0.55919
 Alpha  occ. eigenvalues --   -0.36566
 Alpha virt. eigenvalues --    0.06929   0.09169   0.09169   0.12575   0.16833
 Alpha virt. eigenvalues --    0.23356   0.23357   0.24478   0.36976   0.38247
 Alpha virt. eigenvalues --    0.38247   0.40322   0.40322   0.49214   0.60745
 Alpha virt. eigenvalues --    0.62898   0.62898   0.66428   0.66428   0.66443
 Alpha virt. eigenvalues --    0.73215   0.79941   0.82637   0.82637   0.94728
 Alpha virt. eigenvalues --    1.01023   1.01023   1.05714   1.15792   1.15792
 Alpha virt. eigenvalues --    1.20899   1.20899   1.29064   1.49006   1.49006
 Alpha virt. eigenvalues --    1.49188   1.67039   1.78714   1.78714   2.12910
 Alpha virt. eigenvalues --    2.14953   2.14953   2.46782   2.56432   2.59566
 Alpha virt. eigenvalues --    2.78207   2.78207   2.85699   3.05583   3.12915
 Alpha virt. eigenvalues --    3.12915   3.16673   3.20872   3.20872   3.57222
 Alpha virt. eigenvalues --    3.57222   3.72337   3.72337   3.92303   4.03924
 Alpha virt. eigenvalues --    4.27802   4.27802   4.34997   4.34997   4.39374
 Alpha virt. eigenvalues --    4.39374   4.43056   4.96521   5.35044   5.73259
 Alpha virt. eigenvalues --    5.73259   5.78941   7.15252   7.15252   7.30884
 Alpha virt. eigenvalues --    7.72919   7.72919  24.22837
  Beta  occ. eigenvalues --  -10.13316  -0.80870  -0.56031  -0.54858  -0.54858
  Beta virt. eigenvalues --    0.01597   0.06956   0.09023   0.09023   0.13792
  Beta virt. eigenvalues --    0.18580   0.23597   0.23597   0.25486   0.37551
  Beta virt. eigenvalues --    0.39402   0.39402   0.40317   0.40317   0.50897
  Beta virt. eigenvalues --    0.61345   0.63149   0.63149   0.67139   0.67140
  Beta virt. eigenvalues --    0.69166   0.74149   0.80912   0.82654   0.82654
  Beta virt. eigenvalues --    0.94692   1.01559   1.01559   1.06470   1.15867
  Beta virt. eigenvalues --    1.15868   1.20940   1.20941   1.29920   1.49533
  Beta virt. eigenvalues --    1.49533   1.51590   1.67134   1.83528   1.83528
  Beta virt. eigenvalues --    2.15949   2.15949   2.16062   2.47476   2.56514
  Beta virt. eigenvalues --    2.59855   2.79519   2.79519   2.91135   3.05983
  Beta virt. eigenvalues --    3.15859   3.15859   3.21141   3.24223   3.24223
  Beta virt. eigenvalues --    3.57405   3.57405   3.73240   3.73240   3.92628
  Beta virt. eigenvalues --    4.04294   4.27439   4.27439   4.35642   4.35642
  Beta virt. eigenvalues --    4.39618   4.39618   4.43701   4.96686   5.35996
  Beta virt. eigenvalues --    5.73851   5.73851   5.79067   7.21572   7.21574
  Beta virt. eigenvalues --    7.38904   7.74539   7.74539  24.24707
          Condensed to atoms (all electrons):
              1          2          3          4          5          6
     1  C    5.391241  -0.006798   0.401634   0.401633   0.401633  -0.011412
     2  H   -0.006798   0.583855  -0.000267  -0.000267  -0.000267   0.424096
     3  H    0.401634  -0.000267   0.444735  -0.020488  -0.020488  -0.000086
     4  H    0.401633  -0.000267  -0.020488   0.444738  -0.020487  -0.000086
     5  H    0.401633  -0.000267  -0.020488  -0.020487   0.444738  -0.000086
     6  H   -0.011412   0.424096  -0.000086  -0.000086  -0.000086   0.594160
 Mulliken atomic charges:
              1
     1  C   -0.577932
     2  H   -0.000353
     3  H    0.194959
     4  H    0.194956
     5  H    0.194956
     6  H   -0.006588
 Sum of Mulliken atomic charges =   0.00000
 Mulliken charges with hydrogens summed into heavy atoms:
              1
     1  C    0.000000
 Sum of Mulliken charges with hydrogens summed into heavy atoms =   0.00000
          Atomic-Atomic Spin Densities.
              1          2          3          4          5          6
     1  C    1.063887  -0.002992   0.004741   0.004742   0.004742  -0.009612
     2  H   -0.002992  -0.012627  -0.000011  -0.000011  -0.000011   0.002418
     3  H    0.004741  -0.000011  -0.034321   0.002890   0.002890  -0.000054
     4  H    0.004742  -0.000011   0.002890  -0.034323   0.002890  -0.000054
     5  H    0.004742  -0.000011   0.002890   0.002890  -0.034323  -0.000054
     6  H   -0.009612   0.002418  -0.000054  -0.000054  -0.000054   0.026680
 Mulliken atomic spin densities:
              1
     1  C    1.065508
     2  H   -0.013234
     3  H   -0.023865
     4  H   -0.023866
     5  H   -0.023866
     6  H    0.019323
 Sum of Mulliken atomic spin densities =   1.00000
 Electronic spatial extent (au):  <R**2>=            102.0687
 Charge=              0.0000 electrons
 Dipole moment (field-independent basis, Debye):
    X=              0.0000    Y=              0.0000    Z=             -0.0869  Tot=              0.0869
 Quadrupole moment (field-independent basis, Debye-Ang):
   XX=             -9.4526   YY=             -9.4526   ZZ=            -11.1062
   XY=              0.0000   XZ=              0.0000   YZ=              0.0000
 Traceless Quadrupole moment (field-independent basis, Debye-Ang):
   XX=              0.5512   YY=              0.5512   ZZ=             -1.1024
   XY=              0.0000   XZ=              0.0000   YZ=              0.0000
 Octapole moment (field-independent basis, Debye-Ang**2):
  XXX=              0.9839  YYY=              0.0000  ZZZ=            -15.8344  XYY=             -0.9838
  XXY=              0.0000  XXZ=             -6.6310  XZZ=              0.0000  YZZ=              0.0000
  YYZ=             -6.6310  XYZ=              0.0000
 Hexadecapole moment (field-independent basis, Debye-Ang**3):
 XXXX=            -17.5827 YYYY=            -17.5827 ZZZZ=           -109.2512 XXXY=              0.0000
 XXXZ=             -0.0091 YYYX=              0.0000 YYYZ=              0.0000 ZZZX=              0.0000
 ZZZY=              0.0000 XXYY=             -5.8609 XXZZ=            -26.2139 YYZZ=            -26.2139
 XXYZ=              0.0000 YYXZ=              0.0091 ZZXY=              0.0000
 N-N= 1.349343828337D+01 E-N=-1.784408723405D+02  KE= 6.040826619663D+01
                          Isotropic Fermi Contact Couplings
        Atom                 a.u.       MegaHertz       Gauss      10(-4) cm-1
     1  C(13)              0.02898      32.57662      11.62415      10.86639
     2  H(1)              -0.00143      -6.38174      -2.27716      -2.12872
     3  H(1)              -0.01320     -59.02425     -21.06132     -19.68837
     4  H(1)              -0.01320     -59.02464     -21.06146     -19.68850
     5  H(1)              -0.01320     -59.02464     -21.06146     -19.68850
     6  H(1)               0.00727      32.48948      11.59306      10.83733
 --------------------------------------------------------
       Center         ----  Spin Dipole Couplings  ----
                      3XX-RR        3YY-RR        3ZZ-RR
 --------------------------------------------------------
     1   Atom       -0.593341     -0.593343      1.186684
     2   Atom       -0.013602     -0.013602      0.027204
     3   Atom        0.074446     -0.075310      0.000864
     4   Atom       -0.037871      0.037007      0.000864
     5   Atom       -0.037871      0.037007      0.000864
     6   Atom       -0.004043     -0.004043      0.008086
 --------------------------------------------------------
                        XY            XZ            YZ
 --------------------------------------------------------
     1   Atom        0.000000      0.000000      0.000000
     2   Atom        0.000000      0.000000      0.000000
     3   Atom        0.000000     -0.000497      0.000000
     4   Atom        0.064846      0.000248      0.000430
     5   Atom       -0.064846      0.000248     -0.000430
     6   Atom        0.000000      0.000000      0.000000
 --------------------------------------------------------


 ---------------------------------------------------------------------------------
              Anisotropic Spin Dipole Couplings in Principal Axis System
 ---------------------------------------------------------------------------------

       Atom             a.u.   MegaHertz   Gauss  10(-4) cm-1        Axes

              Baa    -0.5933   -79.621   -28.411   -26.559  0.0000  1.0000  0.0000
     1 C(13)  Bbb    -0.5933   -79.621   -28.411   -26.559  1.0000  0.0000  0.0000
              Bcc     1.1867   159.242    56.821    53.117  0.0000  0.0000  1.0000
 
              Baa    -0.0136    -7.257    -2.590    -2.421  1.0000  0.0000  0.0000
     2 H(1)   Bbb    -0.0136    -7.257    -2.590    -2.421  0.0000  1.0000  0.0000
              Bcc     0.0272    14.515     5.179     4.842  0.0000  0.0000  1.0000
 
              Baa    -0.0753   -40.182   -14.338   -13.403  0.0000  1.0000  0.0000
     3 H(1)   Bbb     0.0009     0.459     0.164     0.153  0.0068  0.0000  1.0000
              Bcc     0.0744    39.723    14.174    13.250  1.0000  0.0000 -0.0068
 
              Baa    -0.0753   -40.182   -14.338   -13.403  0.8660 -0.5000  0.0000
     4 H(1)   Bbb     0.0009     0.459     0.164     0.153 -0.0034 -0.0058  1.0000
              Bcc     0.0744    39.723    14.174    13.250  0.5000  0.8660  0.0067
 
              Baa    -0.0753   -40.182   -14.338   -13.403  0.8660  0.5000  0.0000
     5 H(1)   Bbb     0.0009     0.459     0.164     0.153 -0.0034  0.0058  1.0000
              Bcc     0.0744    39.723    14.174    13.250 -0.5000  0.8660 -0.0067
 
              Baa    -0.0040    -2.157    -0.770    -0.720  0.0000  1.0000  0.0000
     6 H(1)   Bbb    -0.0040    -2.157    -0.770    -0.720  1.0000  0.0000  0.0000
              Bcc     0.0081     4.314     1.539     1.439  0.0000  0.0000  1.0000
 

 ---------------------------------------------------------------------------------

 No NMR shielding tensors so no spin-rotation constants.
 Leave Link  601 at Wed Nov  3 01:49:36 2010, MaxMem=  786432000 cpu:       3.9
 (Enter /share/apps/G09A02/g09/l9999.exe)
 1\1\GINC-COMPUTE-0-7\SP\ULC-BLYP\6-311+G(3df,2p)\C1H5(2)\WENXINZY\03-N
 ov-2010\0\\#p lc-blyp/6-311+g(3df,2p) nosymm scf=tight\\24 H2+CH3\\0,2
 \C\H,1,2.6742971\H,1,1.0792697,2,90.2798588\H,1,1.0792697,2,90.2798588
 ,3,120.,0\H,1,1.0792697,2,90.2798588,3,-120.,0\H,2,0.7444206,1,180.,3,
 0.,0\\Version=EM64L-G09RevA.02\HF=-40.8751903\S2=0.753648\S2-1=0.\S2A=
 0.750007\RMSD=9.234e-09\Dipole=0.0000012,0.,-0.0341927\Quadrupole=0.40
 98119,0.4098109,-0.8196227,0.,0.0000044,0.\PG=C03V [C3(H1H1C1),3SGV(H1
 )]\\@


 TIME IS NATURE'S WAY OF MAKING SURE EVERYTHING
 DOESN'T HAPPEN AT ONCE.
                     - WOODY ALLEN
 Job cpu time:  0 days  0 hours  4 minutes 30.0 seconds.
 File lengths (MBytes):  RWF=      9 Int=      0 D2E=      0 Chk=      1 Scr=      1
 Normal termination of Gaussian 09 at Wed Nov  3 01:49:36 2010.
