 Entering Gaussian System, Link 0=/share/apps/G09A02/g09/g09
 Input=./.script12553/Job_H2_CH3_26.com
 Output=./.script12553/Job_H2_CH3_26.log
 Initial command:
 /share/apps/G09A02/g09/l1.exe /state/partition1/wenxinzy/scratch/Gau-20210.inp -scrdir=/state/partition1/wenxinzy/scratch/
 Default is to use a total of   8 processors:
                                8 via shared-memory
                                1 via Linda
 Entering Link 1 = /share/apps/G09A02/g09/l1.exe PID=     20211.
  
 Copyright (c) 1988,1990,1992,1993,1995,1998,2003,2009, Gaussian, Inc.
                  All Rights Reserved.
  
 This is part of the Gaussian(R) 09 program.  It is based on
 the Gaussian(R) 03 system (copyright 2003, Gaussian, Inc.),
 the Gaussian(R) 98 system (copyright 1998, Gaussian, Inc.),
 the Gaussian(R) 94 system (copyright 1995, Gaussian, Inc.),
 the Gaussian 92(TM) system (copyright 1992, Gaussian, Inc.),
 the Gaussian 90(TM) system (copyright 1990, Gaussian, Inc.),
 the Gaussian 88(TM) system (copyright 1988, Gaussian, Inc.),
 the Gaussian 86(TM) system (copyright 1986, Carnegie Mellon
 University), and the Gaussian 82(TM) system (copyright 1983,
 Carnegie Mellon University). Gaussian is a federally registered
 trademark of Gaussian, Inc.
  
 This software contains proprietary and confidential information,
 including trade secrets, belonging to Gaussian, Inc.
  
 This software is provided under written license and may be
 used, copied, transmitted, or stored only in accord with that
 written license.
  
 The following legend is applicable only to US Government
 contracts under FAR:
  
                    RESTRICTED RIGHTS LEGEND
  
 Use, reproduction and disclosure by the US Government is
 subject to restrictions as set forth in subparagraphs (a)
 and (c) of the Commercial Computer Software - Restricted
 Rights clause in FAR 52.227-19.
  
 Gaussian, Inc.
 340 Quinnipiac St., Bldg. 40, Wallingford CT 06492
  
  
 ---------------------------------------------------------------
 Warning -- This program may not be used in any manner that
 competes with the business of Gaussian, Inc. or will provide
 assistance to any competitor of Gaussian, Inc.  The licensee
 of this program is prohibited from giving any competitor of
 Gaussian, Inc. access to this program.  By using this program,
 the user acknowledges that Gaussian, Inc. is engaged in the
 business of creating and licensing software in the field of
 computational chemistry and represents and warrants to the
 licensee that it is not a competitor of Gaussian, Inc. and that
 it will not use this program in any manner prohibited above.
 ---------------------------------------------------------------
  

 Cite this work as:
 Gaussian 09, Revision A.02,
 M. J. Frisch, G. W. Trucks, H. B. Schlegel, G. E. Scuseria, 
 M. A. Robb, J. R. Cheeseman, G. Scalmani, V. Barone, B. Mennucci, 
 G. A. Petersson, H. Nakatsuji, M. Caricato, X. Li, H. P. Hratchian, 
 A. F. Izmaylov, J. Bloino, G. Zheng, J. L. Sonnenberg, M. Hada, 
 M. Ehara, K. Toyota, R. Fukuda, J. Hasegawa, M. Ishida, T. Nakajima, 
 Y. Honda, O. Kitao, H. Nakai, T. Vreven, J. A. Montgomery, Jr., 
 J. E. Peralta, F. Ogliaro, M. Bearpark, J. J. Heyd, E. Brothers, 
 K. N. Kudin, V. N. Staroverov, R. Kobayashi, J. Normand, 
 K. Raghavachari, A. Rendell, J. C. Burant, S. S. Iyengar, J. Tomasi, 
 M. Cossi, N. Rega, J. M. Millam, M. Klene, J. E. Knox, J. B. Cross, 
 V. Bakken, C. Adamo, J. Jaramillo, R. Gomperts, R. E. Stratmann, 
 O. Yazyev, A. J. Austin, R. Cammi, C. Pomelli, J. W. Ochterski, 
 R. L. Martin, K. Morokuma, V. G. Zakrzewski, G. A. Voth, 
 P. Salvador, J. J. Dannenberg, S. Dapprich, A. D. Daniels, 
 O. Farkas, J. B. Foresman, J. V. Ortiz, J. Cioslowski, 
 and D. J. Fox, Gaussian, Inc., Wallingford CT, 2009.
 
 ******************************************
 Gaussian 09:  EM64L-G09RevA.02 11-Jun-2009
                 3-Nov-2010 
 ******************************************
 %chk=/state/partition1/wenxinzy/scratch/H2_CH3_26.chk
 %nproc=8
 Will use up to    8 processors via shared memory.
 %mem=6000mb
 -------------------------------------------
 #p lc-blyp/6-311+g(3df,2p) nosymm scf=tight
 -------------------------------------------
 1/38=1/1;
 2/12=2,15=1,17=6,18=5,40=1/2;
 3/5=4,6=6,7=216,11=2,16=1,25=1,30=1,74=1000402/1,2,3;
 4//1;
 5/5=2,32=2,38=5/2;
 6/7=2,8=2,9=2,10=2,28=1/1;
 99/5=1,9=1/99;
 Leave Link    1 at Wed Nov  3 01:50:45 2010, MaxMem=  786432000 cpu:       0.3
 (Enter /share/apps/G09A02/g09/l101.exe)
 ---------
 27 H2+CH3
 ---------
 Symbolic Z-matrix:
 Charge =  0 Multiplicity = 2
 C
 H1                   C    R1
 H2                   C    R2       H1   A1
 H3                   C    R2       H1   A1       H2    120.     0
 H4                   C    R2       H1   A1       H2   -120.     0
 H5                   H1   R3       C     180.     H2    0.       0
       Variables:
  R1                    2.81423                  
  R2                    1.07926                  
  A1                   90.23427                  
  R3                    0.74396                  
 
 NAtoms=      6 NQM=      6 NQMF=      0 NMic=      0 NMicF=      0 NTot=      6.
                    Isotopes and Nuclear Properties:
 (Nuclear quadrupole moments (NQMom) in fm**2, nuclear magnetic moments (NMagM)
  in nuclear magnetons)

  Atom         1           2           3           4           5           6
 IAtWgt=          12           1           1           1           1           1
 AtmWgt=  12.0000000   1.0078250   1.0078250   1.0078250   1.0078250   1.0078250
 NucSpn=           0           1           1           1           1           1
 AtZEff=   0.0000000   0.0000000   0.0000000   0.0000000   0.0000000   0.0000000
 NQMom=    0.0000000   0.0000000   0.0000000   0.0000000   0.0000000   0.0000000
 NMagM=    0.0000000   2.7928460   2.7928460   2.7928460   2.7928460   2.7928460
 Leave Link  101 at Wed Nov  3 01:50:45 2010, MaxMem=  786432000 cpu:       1.0
 (Enter /share/apps/G09A02/g09/l202.exe)
                          Input orientation:                          
 ---------------------------------------------------------------------
 Center     Atomic      Atomic             Coordinates (Angstroms)
 Number     Number       Type             X           Y           Z
 ---------------------------------------------------------------------
      1          6           0        0.000000    0.000000    0.000000
      2          1           0        0.000000    0.000000    2.814225
      3          1           0        1.079246    0.000000   -0.004413
      4          1           0       -0.539623   -0.934655   -0.004413
      5          1           0       -0.539623    0.934655   -0.004413
      6          1           0        0.000000    0.000000    3.558184
 ---------------------------------------------------------------------
                    Distance matrix (angstroms):
                    1          2          3          4          5
     1  C    0.000000
     2  H    2.814225   0.000000
     3  H    1.079255   3.018193   0.000000
     4  H    1.079255   3.018193   1.869309   0.000000
     5  H    1.079255   3.018193   1.869309   1.869309   0.000000
     6  H    3.558184   0.743959   3.722482   3.722482   3.722482
                    6
     6  H    0.000000
 Symmetry turned off by external request.
 Stoichiometry    CH5(2)
 Framework group  C3V[C3(HHC),3SGV(H)]
 Deg. of freedom     4
 Full point group                 C3V     NOp   6
 Rotational constants (GHZ):    143.5059275     25.1533998     25.1533998
 Leave Link  202 at Wed Nov  3 01:50:45 2010, MaxMem=  786432000 cpu:       0.0
 (Enter /share/apps/G09A02/g09/l301.exe)
 Standard basis: 6-311+G(3df,2p) (5D, 7F)
 Ernie: Thresh=  0.10000D-02 Tol=  0.10000D-05 Strict=F.
 Integral buffers will be    131072 words long.
 Raffenetti 2 integral format.
 Two-electron integral symmetry is turned off.
    84 basis functions,   113 primitive gaussians,    90 cartesian basis functions
     6 alpha electrons        5 beta electrons
       nuclear repulsion energy        13.3592720958 Hartrees.
 IExCor=10402 DFT=T Ex=LC-B+HF Corr=LYP ExCW=0 ScaHFX=  1.000000
 ScaDFX=  1.000000  1.000000  1.000000  1.000000 ScalE2=  1.000000  1.000000
 IRadAn=      0 IRanWt=     -1 IRanGd=            0 ICorTp=0
  HFx wShort=  0.000000 wLong=  0.470000 cFull=  0.000000 cShort=  0.000000 cLong=  1.000000
  DFx wShort=  0.000000 wLong=  0.470000 cFull=  0.000000 cShort=  0.000000 cLong=  1.000000
 NAtoms=    6 NActive=    6 NUniq=    6 SFac= 7.50D-01 NAtFMM=   80 NAOKFM=F Big=F
 Leave Link  301 at Wed Nov  3 01:50:45 2010, MaxMem=  786432000 cpu:       0.7
 (Enter /share/apps/G09A02/g09/l302.exe)
 NPDir=0 NMtPBC=     1 NCelOv=     1 NCel=       1 NClECP=     1 NCelD=      1
         NCelK=      1 NCelE2=     1 NClLst=     1 CellRange=     0.0.
 One-electron integrals computed using PRISM.
 NBasis=    84 RedAO= T  NBF=    84
 NBsUse=    84 1.00D-06 NBFU=    84
 Precomputing XC quadrature grid using
 IXCGrd= 2 IRadAn=           0 IRanWt=          -1 IRanGd=           0 AccXCQ= 1.00D-10.
 NRdTot=     384 NPtTot=       48302 NUsed=       51081 NTot=       51113
 NSgBfM=    90    90    90    90    90 NAtAll=     6     6.
 Leave Link  302 at Wed Nov  3 01:50:46 2010, MaxMem=  786432000 cpu:       2.5
 (Enter /share/apps/G09A02/g09/l303.exe)
 DipDrv:  MaxL=1.
 Leave Link  303 at Wed Nov  3 01:50:46 2010, MaxMem=  786432000 cpu:       0.7
 (Enter /share/apps/G09A02/g09/l401.exe)
 Harris functional with IExCor=10402 diagonalized for initial guess.
 ExpMin= 4.38D-02 ExpMax= 4.56D+03 ExpMxC= 6.82D+02 IAcc=2 IRadAn=         0 AccDes= 0.00D+00
 HarFok:  IExCor=10402 AccDes= 0.00D+00 IRadAn=         0 IDoV= 1
 ScaDFX=  1.000000  1.000000  1.000000  1.000000
 FoFCou: FMM=F IPFlag=           0 FMFlag=      100000 FMFlg1=           0
         NFxFlg=           0 DoJE=T BraDBF=F KetDBF=T FulRan=T
         Omega=  0.000000  0.000000  1.000000  0.000000  0.000000 ICntrl=     500 IOpCl=  0
         NMat0=    1 NMatS0=    1 NMatT0=    0 NMatD0=    1 NMtDS0=    0 NMtDT0=    0
         I1Cent=           4 NGrid=           0.
 Symmetry not used in FoFCou.
 Harris En= -38.5359428409001    
 Initial guess <Sx>= 0.0000 <Sy>= 0.0000 <Sz>= 0.5000 <S**2>= 0.7500 S= 0.5000
 Leave Link  401 at Wed Nov  3 01:50:46 2010, MaxMem=  786432000 cpu:       3.7
 (Enter /share/apps/G09A02/g09/l502.exe)
 UHF open shell SCF:
 Requested convergence on RMS density matrix=1.00D-08 within 128 cycles.
 Requested convergence on MAX density matrix=1.00D-06.
 Requested convergence on             energy=1.00D-06.
 No special actions if energy rises.
 Using DIIS extrapolation, IDIIS=  1040.
 Two-electron integral symmetry not used.
        51014 words used for storage of precomputed grid.
 IEnd=       94732 IEndB=       94732 NGot=   786432000 MDV=   786362099
 LenX=   786362099 LenY=   786353558
 Fock matrices will be formed incrementally for  20 cycles.

 Cycle   1  Pass 1  IDiag  1:
 FoFJK:  IHMeth= 1 ICntrl=     0 DoSepK=T KAlg= 1 I1Cent= 0 FoldK=F
 FoFCou: FMM=F IPFlag=           0 FMFlag=      100000 FMFlg1=           0
         NFxFlg=           0 DoJE=T BraDBF=F KetDBF=F FulRan=T
         Omega=  0.000000  0.000000  1.000000  0.000000  0.000000 ICntrl=     500 IOpCl=  0
         NMat0=    1 NMatS0=    1 NMatT0=    0 NMatD0=    1 NMtDS0=    0 NMtDT0=    0
         I1Cent=           0 NGrid=           0.
 Symmetry not used in FoFCou.
 E= -40.8561814098394    
 DIIS: error= 2.06D-02 at cycle   1 NSaved=   1.
 NSaved= 1 IEnMin= 1 EnMin= -40.8561814098394     IErMin= 1 ErrMin= 2.06D-02
 ErrMax= 2.06D-02 EMaxC= 1.00D-01 BMatC= 6.10D-02 BMatP= 6.10D-02
 IDIUse=3 WtCom= 7.94D-01 WtEn= 2.06D-01
 Coeff-Com:  0.100D+01
 Coeff-En:   0.100D+01
 Coeff:      0.100D+01
 Gap=     0.390 Goal=   None    Shift=    0.000
 Gap=     0.620 Goal=   None    Shift=    0.000
 GapD=    0.390 DampG=1.000 DampE=0.500 DampFc=0.5000 IDamp=-1.
 Damping current iteration by 5.00D-01
 RMSDP=1.48D-03 MaxDP=6.47D-02              OVMax= 5.28D-02

 Cycle   2  Pass 1  IDiag  1:
 RMSU=  5.46D-04    CP:  9.82D-01
 FoFJK:  IHMeth= 1 ICntrl=     0 DoSepK=T KAlg= 1 I1Cent= 0 FoldK=F
 E= -40.8648896096508     Delta-E=       -0.008708199811 Rises=F Damp=T
 DIIS: error= 9.27D-03 at cycle   2 NSaved=   2.
 NSaved= 2 IEnMin= 2 EnMin= -40.8648896096508     IErMin= 2 ErrMin= 9.27D-03
 ErrMax= 9.27D-03 EMaxC= 1.00D-01 BMatC= 9.87D-03 BMatP= 6.10D-02
 IDIUse=3 WtCom= 9.07D-01 WtEn= 9.27D-02
 Coeff-Com: -0.432D+00 0.143D+01
 Coeff-En:   0.000D+00 0.100D+01
 Coeff:     -0.392D+00 0.139D+01
 Gap=     0.431 Goal=   None    Shift=    0.000
 Gap=     0.566 Goal=   None    Shift=    0.000
 RMSDP=8.21D-04 MaxDP=2.45D-02 DE=-8.71D-03 OVMax= 4.35D-02

 Cycle   3  Pass 1  IDiag  1:
 RMSU=  4.77D-04    CP:  9.74D-01  1.89D+00
 FoFJK:  IHMeth= 1 ICntrl=     0 DoSepK=T KAlg= 1 I1Cent= 0 FoldK=F
 E= -40.8746568236627     Delta-E=       -0.009767214012 Rises=F Damp=F
 DIIS: error= 2.85D-03 at cycle   3 NSaved=   3.
 NSaved= 3 IEnMin= 3 EnMin= -40.8746568236627     IErMin= 3 ErrMin= 2.85D-03
 ErrMax= 2.85D-03 EMaxC= 1.00D-01 BMatC= 7.20D-04 BMatP= 9.87D-03
 IDIUse=3 WtCom= 9.71D-01 WtEn= 2.85D-02
 Coeff-Com: -0.644D-01-0.679D-01 0.113D+01
 Coeff-En:   0.000D+00 0.000D+00 0.100D+01
 Coeff:     -0.625D-01-0.660D-01 0.113D+01
 Gap=     0.433 Goal=   None    Shift=    0.000
 Gap=     0.564 Goal=   None    Shift=    0.000
 RMSDP=2.74D-04 MaxDP=1.00D-02 DE=-9.77D-03 OVMax= 2.19D-02

 Cycle   4  Pass 1  IDiag  1:
 RMSU=  7.17D-05    CP:  9.71D-01  2.16D+00  1.32D+00
 FoFJK:  IHMeth= 1 ICntrl=     0 DoSepK=T KAlg= 1 I1Cent= 0 FoldK=F
 E= -40.8751891989128     Delta-E=       -0.000532375250 Rises=F Damp=F
 DIIS: error= 1.26D-03 at cycle   4 NSaved=   4.
 NSaved= 4 IEnMin= 4 EnMin= -40.8751891989128     IErMin= 4 ErrMin= 1.26D-03
 ErrMax= 1.26D-03 EMaxC= 1.00D-01 BMatC= 5.65D-05 BMatP= 7.20D-04
 IDIUse=3 WtCom= 9.87D-01 WtEn= 1.26D-02
 Coeff-Com:  0.334D-01-0.525D-01-0.356D+00 0.137D+01
 Coeff-En:   0.000D+00 0.000D+00 0.000D+00 0.100D+01
 Coeff:      0.329D-01-0.518D-01-0.351D+00 0.137D+01
 Gap=     0.435 Goal=   None    Shift=    0.000
 Gap=     0.564 Goal=   None    Shift=    0.000
 RMSDP=1.09D-04 MaxDP=4.13D-03 DE=-5.32D-04 OVMax= 9.71D-03

 Cycle   5  Pass 1  IDiag  1:
 RMSU=  1.39D-05    CP:  9.70D-01  2.23D+00  1.45D+00  1.68D+00
 FoFJK:  IHMeth= 1 ICntrl=     0 DoSepK=T KAlg= 1 I1Cent= 0 FoldK=F
 E= -40.8752520048920     Delta-E=       -0.000062805979 Rises=F Damp=F
 DIIS: error= 2.28D-04 at cycle   5 NSaved=   5.
 NSaved= 5 IEnMin= 5 EnMin= -40.8752520048920     IErMin= 5 ErrMin= 2.28D-04
 ErrMax= 2.28D-04 EMaxC= 1.00D-01 BMatC= 3.63D-06 BMatP= 5.65D-05
 IDIUse=3 WtCom= 9.98D-01 WtEn= 2.28D-03
 Coeff-Com: -0.647D-02 0.217D-01 0.693D-01-0.532D+00 0.145D+01
 Coeff-En:   0.000D+00 0.000D+00 0.000D+00 0.000D+00 0.100D+01
 Coeff:     -0.646D-02 0.217D-01 0.691D-01-0.531D+00 0.145D+01
 Gap=     0.435 Goal=   None    Shift=    0.000
 Gap=     0.564 Goal=   None    Shift=    0.000
 RMSDP=2.37D-05 MaxDP=7.15D-04 DE=-6.28D-05 OVMax= 1.54D-03

 Cycle   6  Pass 1  IDiag  1:
 RMSU=  4.21D-06    CP:  9.70D-01  2.24D+00  1.46D+00  1.86D+00  1.70D+00
 FoFJK:  IHMeth= 1 ICntrl=     0 DoSepK=T KAlg= 1 I1Cent= 0 FoldK=F
 E= -40.8752553395322     Delta-E=       -0.000003334640 Rises=F Damp=F
 DIIS: error= 4.19D-05 at cycle   6 NSaved=   6.
 NSaved= 6 IEnMin= 6 EnMin= -40.8752553395322     IErMin= 6 ErrMin= 4.19D-05
 ErrMax= 4.19D-05 EMaxC= 1.00D-01 BMatC= 1.96D-07 BMatP= 3.63D-06
 IDIUse=1 WtCom= 1.00D+00 WtEn= 0.00D+00
 Coeff-Com: -0.293D-03-0.311D-02-0.635D-02 0.108D+00-0.480D+00 0.138D+01
 Coeff:     -0.293D-03-0.311D-02-0.635D-02 0.108D+00-0.480D+00 0.138D+01
 Gap=     0.435 Goal=   None    Shift=    0.000
 Gap=     0.564 Goal=   None    Shift=    0.000
 RMSDP=4.75D-06 MaxDP=9.85D-05 DE=-3.33D-06 OVMax= 2.32D-04

 Cycle   7  Pass 1  IDiag  1:
 RMSU=  1.33D-06    CP:  9.70D-01  2.23D+00  1.46D+00  1.87D+00  1.84D+00
                    CP:  1.74D+00
 FoFJK:  IHMeth= 1 ICntrl=     0 DoSepK=T KAlg= 1 I1Cent= 0 FoldK=F
 E= -40.8752555208694     Delta-E=       -0.000000181337 Rises=F Damp=F
 DIIS: error= 1.31D-05 at cycle   7 NSaved=   7.
 NSaved= 7 IEnMin= 7 EnMin= -40.8752555208694     IErMin= 7 ErrMin= 1.31D-05
 ErrMax= 1.31D-05 EMaxC= 1.00D-01 BMatC= 1.46D-08 BMatP= 1.96D-07
 IDIUse=1 WtCom= 1.00D+00 WtEn= 0.00D+00
 Coeff-Com:  0.825D-03-0.167D-02-0.425D-02 0.256D-01-0.343D-01-0.276D+00
 Coeff-Com:  0.129D+01
 Coeff:      0.825D-03-0.167D-02-0.425D-02 0.256D-01-0.343D-01-0.276D+00
 Coeff:      0.129D+01
 Gap=     0.435 Goal=   None    Shift=    0.000
 Gap=     0.564 Goal=   None    Shift=    0.000
 RMSDP=1.60D-06 MaxDP=3.56D-05 DE=-1.81D-07 OVMax= 7.86D-05

 Cycle   8  Pass 1  IDiag  1:
 RMSU=  2.74D-07    CP:  9.70D-01  2.23D+00  1.46D+00  1.87D+00  1.85D+00
                    CP:  2.00D+00  1.50D+00
 FoFJK:  IHMeth= 1 ICntrl=     0 DoSepK=T KAlg= 1 I1Cent= 0 FoldK=F
 E= -40.8752555342977     Delta-E=       -0.000000013428 Rises=F Damp=F
 DIIS: error= 1.69D-06 at cycle   8 NSaved=   8.
 NSaved= 8 IEnMin= 8 EnMin= -40.8752555342977     IErMin= 8 ErrMin= 1.69D-06
 ErrMax= 1.69D-06 EMaxC= 1.00D-01 BMatC= 4.53D-10 BMatP= 1.46D-08
 IDIUse=1 WtCom= 1.00D+00 WtEn= 0.00D+00
 Coeff-Com: -0.582D-05 0.244D-03 0.764D-03-0.857D-02 0.317D-01-0.592D-01
 Coeff-Com: -0.970D-01 0.113D+01
 Coeff:     -0.582D-05 0.244D-03 0.764D-03-0.857D-02 0.317D-01-0.592D-01
 Coeff:     -0.970D-01 0.113D+01
 Gap=     0.435 Goal=   None    Shift=    0.000
 Gap=     0.564 Goal=   None    Shift=    0.000
 RMSDP=2.66D-07 MaxDP=8.01D-06 DE=-1.34D-08 OVMax= 1.01D-05

 Cycle   9  Pass 1  IDiag  1:
 RMSU=  4.52D-08    CP:  9.70D-01  2.23D+00  1.46D+00  1.87D+00  1.85D+00
                    CP:  2.03D+00  1.60D+00  1.37D+00
 FoFJK:  IHMeth= 1 ICntrl=     0 DoSepK=T KAlg= 1 I1Cent= 0 FoldK=F
 E= -40.8752555345915     Delta-E=       -0.000000000294 Rises=F Damp=F
 DIIS: error= 6.80D-07 at cycle   9 NSaved=   9.
 NSaved= 9 IEnMin= 9 EnMin= -40.8752555345915     IErMin= 9 ErrMin= 6.80D-07
 ErrMax= 6.80D-07 EMaxC= 1.00D-01 BMatC= 2.41D-11 BMatP= 4.53D-10
 IDIUse=1 WtCom= 1.00D+00 WtEn= 0.00D+00
 Coeff-Com: -0.363D-04 0.341D-05-0.946D-04 0.153D-02-0.773D-02 0.265D-01
 Coeff-Com: -0.152D-01-0.300D+00 0.130D+01
 Coeff:     -0.363D-04 0.341D-05-0.946D-04 0.153D-02-0.773D-02 0.265D-01
 Coeff:     -0.152D-01-0.300D+00 0.130D+01
 Gap=     0.435 Goal=   None    Shift=    0.000
 Gap=     0.564 Goal=   None    Shift=    0.000
 RMSDP=5.96D-08 MaxDP=1.35D-06 DE=-2.94D-10 OVMax= 3.52D-06

 Cycle  10  Pass 1  IDiag  1:
 RMSU=  1.74D-08    CP:  9.70D-01  2.23D+00  1.46D+00  1.87D+00  1.85D+00
                    CP:  2.03D+00  1.61D+00  1.45D+00  1.51D+00
 FoFJK:  IHMeth= 1 ICntrl=     0 DoSepK=T KAlg= 1 I1Cent= 0 FoldK=F
 E= -40.8752555346131     Delta-E=       -0.000000000022 Rises=F Damp=F
 DIIS: error= 3.25D-07 at cycle  10 NSaved=  10.
 NSaved=10 IEnMin=10 EnMin= -40.8752555346131     IErMin=10 ErrMin= 3.25D-07
 ErrMax= 3.25D-07 EMaxC= 1.00D-01 BMatC= 3.68D-12 BMatP= 2.41D-11
 IDIUse=1 WtCom= 1.00D+00 WtEn= 0.00D+00
 Coeff-Com:  0.266D-04-0.270D-04-0.967D-06-0.228D-03 0.217D-02-0.116D-01
 Coeff-Com:  0.167D-01 0.942D-01-0.771D+00 0.167D+01
 Coeff:      0.266D-04-0.270D-04-0.967D-06-0.228D-03 0.217D-02-0.116D-01
 Coeff:      0.167D-01 0.942D-01-0.771D+00 0.167D+01
 Gap=     0.435 Goal=   None    Shift=    0.000
 Gap=     0.564 Goal=   None    Shift=    0.000
 RMSDP=2.63D-08 MaxDP=7.30D-07 DE=-2.16D-11 OVMax= 1.85D-06

 Cycle  11  Pass 1  IDiag  1:
 RMSU=  6.87D-09    CP:  9.70D-01  2.23D+00  1.46D+00  1.87D+00  1.85D+00
                    CP:  2.03D+00  1.61D+00  1.46D+00  1.75D+00  1.82D+00
 FoFJK:  IHMeth= 1 ICntrl=     0 DoSepK=T KAlg= 1 I1Cent= 0 FoldK=F
 E= -40.8752555346187     Delta-E=       -0.000000000006 Rises=F Damp=F
 DIIS: error= 9.51D-08 at cycle  11 NSaved=  11.
 NSaved=11 IEnMin=11 EnMin= -40.8752555346187     IErMin=11 ErrMin= 9.51D-08
 ErrMax= 9.51D-08 EMaxC= 1.00D-01 BMatC= 3.39D-13 BMatP= 3.68D-12
 IDIUse=1 WtCom= 1.00D+00 WtEn= 0.00D+00
 Coeff-Com: -0.793D-05 0.128D-04 0.105D-04-0.102D-03 0.877D-04 0.150D-02
 Coeff-Com: -0.553D-02 0.440D-03 0.152D+00-0.672D+00 0.152D+01
 Coeff:     -0.793D-05 0.128D-04 0.105D-04-0.102D-03 0.877D-04 0.150D-02
 Coeff:     -0.553D-02 0.440D-03 0.152D+00-0.672D+00 0.152D+01
 Gap=     0.435 Goal=   None    Shift=    0.000
 Gap=     0.564 Goal=   None    Shift=    0.000
 RMSDP=8.96D-09 MaxDP=3.00D-07 DE=-5.66D-12 OVMax= 6.40D-07

 SCF Done:  E(ULC-B+HF-LYP) =  -40.8752555346     A.U. after   11 cycles
             Convg  =    0.8956D-08             -V/T =  2.0049
 <Sx>= 0.0000 <Sy>= 0.0000 <Sz>= 0.5000 <S**2>= 0.7536 S= 0.5018
 <L.S>= 0.000000000000E+00
 KE= 4.067547716364D+01 PE=-1.207702790524D+02 EE= 2.586027425842D+01
 Annihilation of the first spin contaminant:
 S**2 before annihilation     0.7536,   after     0.7500
 Leave Link  502 at Wed Nov  3 01:51:18 2010, MaxMem=  786432000 cpu:     256.0
 (Enter /share/apps/G09A02/g09/l601.exe)
 Copying SCF densities to generalized density rwf, IOpCl= 1 IROHF=0.

 **********************************************************************

            Population analysis using the SCF density.

 **********************************************************************

 Alpha  occ. eigenvalues --  -10.14738  -0.85434  -0.56402  -0.55902  -0.55902
 Alpha  occ. eigenvalues --   -0.36606
 Alpha virt. eigenvalues --    0.06911   0.09195   0.09195   0.12721   0.16518
 Alpha virt. eigenvalues --    0.23371   0.23371   0.24322   0.36456   0.38483
 Alpha virt. eigenvalues --    0.38483   0.40335   0.40335   0.48561   0.61731
 Alpha virt. eigenvalues --    0.62888   0.62888   0.65268   0.66255   0.66256
 Alpha virt. eigenvalues --    0.72389   0.80394   0.82519   0.82519   0.94743
 Alpha virt. eigenvalues --    1.00505   1.00505   1.03966   1.15060   1.15060
 Alpha virt. eigenvalues --    1.19659   1.19659   1.26034   1.48226   1.49028
 Alpha virt. eigenvalues --    1.49028   1.64868   1.78689   1.78689   2.12517
 Alpha virt. eigenvalues --    2.14742   2.14742   2.44614   2.56159   2.58288
 Alpha virt. eigenvalues --    2.77594   2.77594   2.84899   3.05598   3.12735
 Alpha virt. eigenvalues --    3.12735   3.16361   3.20838   3.20838   3.56228
 Alpha virt. eigenvalues --    3.56228   3.72323   3.72323   3.90511   4.03220
 Alpha virt. eigenvalues --    4.27827   4.27827   4.34373   4.34373   4.38792
 Alpha virt. eigenvalues --    4.38792   4.39457   4.96546   5.35036   5.73073
 Alpha virt. eigenvalues --    5.73073   5.77191   7.15211   7.15212   7.30047
 Alpha virt. eigenvalues --    7.72753   7.72753  24.22799
  Beta  occ. eigenvalues --  -10.13317  -0.80833  -0.56126  -0.54840  -0.54840
  Beta virt. eigenvalues --    0.01552   0.06893   0.09038   0.09038   0.14196
  Beta virt. eigenvalues --    0.18034   0.23609   0.23609   0.25297   0.36897
  Beta virt. eigenvalues --    0.39644   0.39644   0.40337   0.40337   0.50254
  Beta virt. eigenvalues --    0.62157   0.63082   0.63082   0.66980   0.66980
  Beta virt. eigenvalues --    0.68551   0.72892   0.81329   0.82516   0.82516
  Beta virt. eigenvalues --    0.94707   1.01014   1.01014   1.04777   1.15163
  Beta virt. eigenvalues --    1.15163   1.19680   1.19681   1.26672   1.49553
  Beta virt. eigenvalues --    1.49553   1.50810   1.64979   1.83503   1.83503
  Beta virt. eigenvalues --    2.15623   2.15731   2.15731   2.45285   2.56411
  Beta virt. eigenvalues --    2.58276   2.78882   2.78883   2.90434   3.05998
  Beta virt. eigenvalues --    3.15679   3.15679   3.20758   3.24212   3.24212
  Beta virt. eigenvalues --    3.56360   3.56361   3.73229   3.73229   3.90821
  Beta virt. eigenvalues --    4.03600   4.27463   4.27463   4.34914   4.34914
  Beta virt. eigenvalues --    4.39117   4.39117   4.40117   4.96711   5.35992
  Beta virt. eigenvalues --    5.73663   5.73663   5.77284   7.21528   7.21529
  Beta virt. eigenvalues --    7.38061   7.74371   7.74371  24.24668
          Condensed to atoms (all electrons):
              1          2          3          4          5          6
     1  C    5.383076  -0.005257   0.401681   0.401681   0.401681  -0.009017
     2  H   -0.005257   0.586020  -0.000101  -0.000101  -0.000101   0.423089
     3  H    0.401681  -0.000101   0.446526  -0.020721  -0.020721  -0.000031
     4  H    0.401681  -0.000101  -0.020721   0.446527  -0.020721  -0.000031
     5  H    0.401681  -0.000101  -0.020721  -0.020721   0.446527  -0.000031
     6  H   -0.009017   0.423089  -0.000031  -0.000031  -0.000031   0.588727
 Mulliken atomic charges:
              1
     1  C   -0.573845
     2  H   -0.003550
     3  H    0.193368
     4  H    0.193366
     5  H    0.193366
     6  H   -0.002705
 Sum of Mulliken atomic charges =   0.00000
 Mulliken charges with hydrogens summed into heavy atoms:
              1
     1  C    0.000000
 Sum of Mulliken charges with hydrogens summed into heavy atoms =   0.00000
          Atomic-Atomic Spin Densities.
              1          2          3          4          5          6
     1  C    1.061267  -0.001715   0.004905   0.004905   0.004905  -0.007299
     2  H   -0.001715  -0.009050  -0.000013  -0.000013  -0.000013   0.001225
     3  H    0.004905  -0.000013  -0.034442   0.002909   0.002909  -0.000036
     4  H    0.004905  -0.000013   0.002909  -0.034443   0.002909  -0.000036
     5  H    0.004905  -0.000013   0.002909   0.002909  -0.034443  -0.000036
     6  H   -0.007299   0.001225  -0.000036  -0.000036  -0.000036   0.020098
 Mulliken atomic spin densities:
              1
     1  C    1.066968
     2  H   -0.009578
     3  H   -0.023768
     4  H   -0.023769
     5  H   -0.023769
     6  H    0.013915
 Sum of Mulliken atomic spin densities =   1.00000
 Electronic spatial extent (au):  <R**2>=            108.2648
 Charge=              0.0000 electrons
 Dipole moment (field-independent basis, Debye):
    X=              0.0000    Y=              0.0000    Z=             -0.0774  Tot=              0.0774
 Quadrupole moment (field-independent basis, Debye-Ang):
   XX=             -9.4594   YY=             -9.4594   ZZ=            -11.0645
   XY=              0.0000   XZ=              0.0000   YZ=              0.0000
 Traceless Quadrupole moment (field-independent basis, Debye-Ang):
   XX=              0.5350   YY=              0.5350   ZZ=             -1.0701
   XY=              0.0000   XZ=              0.0000   YZ=              0.0000
 Octapole moment (field-independent basis, Debye-Ang**2):
  XXX=              0.9825  YYY=              0.0000  ZZZ=            -16.3272  XYY=             -0.9825
  XXY=              0.0000  XXZ=             -6.9409  XZZ=              0.0000  YZZ=              0.0000
  YYZ=             -6.9409  XYZ=              0.0000
 Hexadecapole moment (field-independent basis, Debye-Ang**3):
 XXXX=            -17.6081 YYYY=            -17.6081 ZZZZ=           -116.8888 XXXY=              0.0000
 XXXZ=             -0.0078 YYYX=              0.0000 YYYZ=              0.0000 ZZZX=              0.0000
 ZZZY=              0.0000 XXYY=             -5.8694 XXZZ=            -28.1089 YYZZ=            -28.1089
 XXYZ=              0.0000 YYXZ=              0.0078 ZZXY=              0.0000
 N-N= 1.335927209576D+01 E-N=-1.780470087895D+02  KE= 6.040724037333D+01
                          Isotropic Fermi Contact Couplings
        Atom                 a.u.       MegaHertz       Gauss      10(-4) cm-1
     1  C(13)              0.02885      32.43297      11.57289      10.81847
     2  H(1)              -0.00093      -4.15752      -1.48351      -1.38680
     3  H(1)              -0.01320     -59.02178     -21.06044     -19.68755
     4  H(1)              -0.01320     -59.02218     -21.06058     -19.68768
     5  H(1)              -0.01320     -59.02218     -21.06058     -19.68768
     6  H(1)               0.00530      23.68267       8.45056       7.89969
 --------------------------------------------------------
       Center         ----  Spin Dipole Couplings  ----
                      3XX-RR        3YY-RR        3ZZ-RR
 --------------------------------------------------------
     1   Atom       -0.592799     -0.592801      1.185599
     2   Atom       -0.011152     -0.011152      0.022304
     3   Atom        0.074342     -0.075298      0.000956
     4   Atom       -0.037888      0.036932      0.000956
     5   Atom       -0.037888      0.036932      0.000956
     6   Atom       -0.003699     -0.003699      0.007399
 --------------------------------------------------------
                        XY            XZ            YZ
 --------------------------------------------------------
     1   Atom        0.000000      0.000000      0.000000
     2   Atom        0.000000      0.000000      0.000000
     3   Atom        0.000000     -0.000343      0.000000
     4   Atom        0.064796      0.000172      0.000297
     5   Atom       -0.064796      0.000172     -0.000297
     6   Atom        0.000000      0.000000      0.000000
 --------------------------------------------------------


 ---------------------------------------------------------------------------------
              Anisotropic Spin Dipole Couplings in Principal Axis System
 ---------------------------------------------------------------------------------

       Atom             a.u.   MegaHertz   Gauss  10(-4) cm-1        Axes

              Baa    -0.5928   -79.548   -28.385   -26.534  0.0000  1.0000  0.0000
     1 C(13)  Bbb    -0.5928   -79.548   -28.385   -26.534  1.0000  0.0000  0.0000
              Bcc     1.1856   159.096    56.769    53.069  0.0000  0.0000  1.0000
 
              Baa    -0.0112    -5.950    -2.123    -1.985  1.0000  0.0000  0.0000
     2 H(1)   Bbb    -0.0112    -5.950    -2.123    -1.985  0.0000  1.0000  0.0000
              Bcc     0.0223    11.900     4.246     3.969  0.0000  0.0000  1.0000
 
              Baa    -0.0753   -40.176   -14.336   -13.401  0.0000  1.0000  0.0000
     3 H(1)   Bbb     0.0010     0.509     0.182     0.170  0.0047  0.0000  1.0000
              Bcc     0.0743    39.666    14.154    13.231  1.0000  0.0000 -0.0047
 
              Baa    -0.0753   -40.176   -14.336   -13.401  0.8660 -0.5000  0.0000
     4 H(1)   Bbb     0.0010     0.509     0.182     0.170 -0.0023 -0.0041  1.0000
              Bcc     0.0743    39.666    14.154    13.231  0.5000  0.8660  0.0047
 
              Baa    -0.0753   -40.176   -14.336   -13.401  0.8660  0.5000  0.0000
     5 H(1)   Bbb     0.0010     0.509     0.182     0.170 -0.0023  0.0041  1.0000
              Bcc     0.0743    39.666    14.154    13.231 -0.5000  0.8660 -0.0047
 
              Baa    -0.0037    -1.974    -0.704    -0.658  1.0000  0.0000  0.0000
     6 H(1)   Bbb    -0.0037    -1.974    -0.704    -0.658  0.0000  1.0000  0.0000
              Bcc     0.0074     3.948     1.409     1.317  0.0000  0.0000  1.0000
 

 ---------------------------------------------------------------------------------

 No NMR shielding tensors so no spin-rotation constants.
 Leave Link  601 at Wed Nov  3 01:51:19 2010, MaxMem=  786432000 cpu:       3.8
 (Enter /share/apps/G09A02/g09/l9999.exe)
 1\1\GINC-COMPUTE-0-7\SP\ULC-BLYP\6-311+G(3df,2p)\C1H5(2)\WENXINZY\03-N
 ov-2010\0\\#p lc-blyp/6-311+g(3df,2p) nosymm scf=tight\\27 H2+CH3\\0,2
 \C\H,1,2.814225\H,1,1.0792551,2,90.2342737\H,1,1.0792551,2,90.2342737,
 3,120.,0\H,1,1.0792551,2,90.2342737,3,-120.,0\H,2,0.7439593,1,180.,3,0
 .,0\\Version=EM64L-G09RevA.02\HF=-40.8752555\S2=0.753599\S2-1=0.\S2A=0
 .750007\RMSD=8.956e-09\Dipole=0.0000007,0.,-0.0304689\Quadrupole=0.397
 782,0.3977831,-0.7955651,0.,0.0000058,0.\PG=C03V [C3(H1H1C1),3SGV(H1)]
 \\@


 A COMPLEXITY IS MERELY A DISARRANGEMENT OF SIMPLICITIES.

                                    -- G. O. ABELL IN "EXPLORATION OF THE UNIVERSE"
 Job cpu time:  0 days  0 hours  4 minutes 30.2 seconds.
 File lengths (MBytes):  RWF=      9 Int=      0 D2E=      0 Chk=      1 Scr=      1
 Normal termination of Gaussian 09 at Wed Nov  3 01:51:19 2010.
