 Entering Gaussian System, Link 0=/share/apps/G09A02/g09/g09
 Input=./.script12553/Job_H_CH4_13.com
 Output=./.script12553/Job_H_CH4_13.log
 Initial command:
 /share/apps/G09A02/g09/l1.exe /state/partition1/wenxinzy/scratch/Gau-13903.inp -scrdir=/state/partition1/wenxinzy/scratch/
 Default is to use a total of   8 processors:
                                8 via shared-memory
                                1 via Linda
 Entering Link 1 = /share/apps/G09A02/g09/l1.exe PID=     13904.
  
 Copyright (c) 1988,1990,1992,1993,1995,1998,2003,2009, Gaussian, Inc.
                  All Rights Reserved.
  
 This is part of the Gaussian(R) 09 program.  It is based on
 the Gaussian(R) 03 system (copyright 2003, Gaussian, Inc.),
 the Gaussian(R) 98 system (copyright 1998, Gaussian, Inc.),
 the Gaussian(R) 94 system (copyright 1995, Gaussian, Inc.),
 the Gaussian 92(TM) system (copyright 1992, Gaussian, Inc.),
 the Gaussian 90(TM) system (copyright 1990, Gaussian, Inc.),
 the Gaussian 88(TM) system (copyright 1988, Gaussian, Inc.),
 the Gaussian 86(TM) system (copyright 1986, Carnegie Mellon
 University), and the Gaussian 82(TM) system (copyright 1983,
 Carnegie Mellon University). Gaussian is a federally registered
 trademark of Gaussian, Inc.
  
 This software contains proprietary and confidential information,
 including trade secrets, belonging to Gaussian, Inc.
  
 This software is provided under written license and may be
 used, copied, transmitted, or stored only in accord with that
 written license.
  
 The following legend is applicable only to US Government
 contracts under FAR:
  
                    RESTRICTED RIGHTS LEGEND
  
 Use, reproduction and disclosure by the US Government is
 subject to restrictions as set forth in subparagraphs (a)
 and (c) of the Commercial Computer Software - Restricted
 Rights clause in FAR 52.227-19.
  
 Gaussian, Inc.
 340 Quinnipiac St., Bldg. 40, Wallingford CT 06492
  
  
 ---------------------------------------------------------------
 Warning -- This program may not be used in any manner that
 competes with the business of Gaussian, Inc. or will provide
 assistance to any competitor of Gaussian, Inc.  The licensee
 of this program is prohibited from giving any competitor of
 Gaussian, Inc. access to this program.  By using this program,
 the user acknowledges that Gaussian, Inc. is engaged in the
 business of creating and licensing software in the field of
 computational chemistry and represents and warrants to the
 licensee that it is not a competitor of Gaussian, Inc. and that
 it will not use this program in any manner prohibited above.
 ---------------------------------------------------------------
  

 Cite this work as:
 Gaussian 09, Revision A.02,
 M. J. Frisch, G. W. Trucks, H. B. Schlegel, G. E. Scuseria, 
 M. A. Robb, J. R. Cheeseman, G. Scalmani, V. Barone, B. Mennucci, 
 G. A. Petersson, H. Nakatsuji, M. Caricato, X. Li, H. P. Hratchian, 
 A. F. Izmaylov, J. Bloino, G. Zheng, J. L. Sonnenberg, M. Hada, 
 M. Ehara, K. Toyota, R. Fukuda, J. Hasegawa, M. Ishida, T. Nakajima, 
 Y. Honda, O. Kitao, H. Nakai, T. Vreven, J. A. Montgomery, Jr., 
 J. E. Peralta, F. Ogliaro, M. Bearpark, J. J. Heyd, E. Brothers, 
 K. N. Kudin, V. N. Staroverov, R. Kobayashi, J. Normand, 
 K. Raghavachari, A. Rendell, J. C. Burant, S. S. Iyengar, J. Tomasi, 
 M. Cossi, N. Rega, J. M. Millam, M. Klene, J. E. Knox, J. B. Cross, 
 V. Bakken, C. Adamo, J. Jaramillo, R. Gomperts, R. E. Stratmann, 
 O. Yazyev, A. J. Austin, R. Cammi, C. Pomelli, J. W. Ochterski, 
 R. L. Martin, K. Morokuma, V. G. Zakrzewski, G. A. Voth, 
 P. Salvador, J. J. Dannenberg, S. Dapprich, A. D. Daniels, 
 O. Farkas, J. B. Foresman, J. V. Ortiz, J. Cioslowski, 
 and D. J. Fox, Gaussian, Inc., Wallingford CT, 2009.
 
 ******************************************
 Gaussian 09:  EM64L-G09RevA.02 11-Jun-2009
                 3-Nov-2010 
 ******************************************
 %chk=/state/partition1/wenxinzy/scratch/H_CH4_13.chk
 %nproc=8
 Will use up to    8 processors via shared memory.
 %mem=6000mb
 -------------------------------------------
 #p lc-blyp/6-311+g(3df,2p) nosymm scf=tight
 -------------------------------------------
 1/38=1/1;
 2/12=2,15=1,17=6,18=5,40=1/2;
 3/5=4,6=6,7=216,11=2,16=1,25=1,30=1,74=1000402/1,2,3;
 4//1;
 5/5=2,32=2,38=5/2;
 6/7=2,8=2,9=2,10=2,28=1/1;
 99/5=1,9=1/99;
 Leave Link    1 at Wed Nov  3 01:15:17 2010, MaxMem=  786432000 cpu:       0.5
 (Enter /share/apps/G09A02/g09/l101.exe)
 --------
 14 H_CH4
 --------
 Symbolic Z-matrix:
 Charge =  0 Multiplicity = 2
 C
 H1                   C    R1
 H2                   C    R2       H1   A1
 H3                   C    R2       H1   A1       H2    120.     0
 H4                   C    R2       H1   A1       H2   -120.     0
 H5                   H1   R3       C     180.     H2    0.       0
       Variables:
  R1                    1.09643                  
  R2                    1.08953                  
  A1                  109.28729                  
  R3                    1.6368                   
 
 NAtoms=      6 NQM=      6 NQMF=      0 NMic=      0 NMicF=      0 NTot=      6.
                    Isotopes and Nuclear Properties:
 (Nuclear quadrupole moments (NQMom) in fm**2, nuclear magnetic moments (NMagM)
  in nuclear magnetons)

  Atom         1           2           3           4           5           6
 IAtWgt=          12           1           1           1           1           1
 AtmWgt=  12.0000000   1.0078250   1.0078250   1.0078250   1.0078250   1.0078250
 NucSpn=           0           1           1           1           1           1
 AtZEff=   0.0000000   0.0000000   0.0000000   0.0000000   0.0000000   0.0000000
 NQMom=    0.0000000   0.0000000   0.0000000   0.0000000   0.0000000   0.0000000
 NMagM=    0.0000000   2.7928460   2.7928460   2.7928460   2.7928460   2.7928460
 Leave Link  101 at Wed Nov  3 01:15:18 2010, MaxMem=  786432000 cpu:       1.2
 (Enter /share/apps/G09A02/g09/l202.exe)
                          Input orientation:                          
 ---------------------------------------------------------------------
 Center     Atomic      Atomic             Coordinates (Angstroms)
 Number     Number       Type             X           Y           Z
 ---------------------------------------------------------------------
      1          6           0        0.000000    0.000000    0.000000
      2          1           0        0.000000    0.000000    1.096433
      3          1           0        1.028382    0.000000   -0.359878
      4          1           0       -0.514191   -0.890605   -0.359878
      5          1           0       -0.514191    0.890605   -0.359878
      6          1           0        0.000000    0.000000    2.733236
 ---------------------------------------------------------------------
                    Distance matrix (angstroms):
                    1          2          3          4          5
     1  C    0.000000
     2  H    1.096433   0.000000
     3  H    1.089533   1.782811   0.000000
     4  H    1.089533   1.782811   1.781210   0.000000
     5  H    1.089533   1.782811   1.781210   1.781210   0.000000
     6  H    2.733236   1.636803   3.259590   3.259590   3.259590
                    6
     6  H    0.000000
 Symmetry turned off by external request.
 Stoichiometry    CH5(2)
 Framework group  C3V[C3(HHC),3SGV(H)]
 Deg. of freedom     4
 Full point group                 C3V     NOp   6
 Rotational constants (GHZ):    158.0525803     49.1607146     49.1607146
 Leave Link  202 at Wed Nov  3 01:15:18 2010, MaxMem=  786432000 cpu:       0.0
 (Enter /share/apps/G09A02/g09/l301.exe)
 Standard basis: 6-311+G(3df,2p) (5D, 7F)
 Ernie: Thresh=  0.10000D-02 Tol=  0.10000D-05 Strict=F.
 Integral buffers will be    131072 words long.
 Raffenetti 2 integral format.
 Two-electron integral symmetry is turned off.
    84 basis functions,   113 primitive gaussians,    90 cartesian basis functions
     6 alpha electrons        5 beta electrons
       nuclear repulsion energy        15.3919758083 Hartrees.
 IExCor=10402 DFT=T Ex=LC-B+HF Corr=LYP ExCW=0 ScaHFX=  1.000000
 ScaDFX=  1.000000  1.000000  1.000000  1.000000 ScalE2=  1.000000  1.000000
 IRadAn=      0 IRanWt=     -1 IRanGd=            0 ICorTp=0
  HFx wShort=  0.000000 wLong=  0.470000 cFull=  0.000000 cShort=  0.000000 cLong=  1.000000
  DFx wShort=  0.000000 wLong=  0.470000 cFull=  0.000000 cShort=  0.000000 cLong=  1.000000
 NAtoms=    6 NActive=    6 NUniq=    6 SFac= 7.50D-01 NAtFMM=   80 NAOKFM=F Big=F
 Leave Link  301 at Wed Nov  3 01:15:18 2010, MaxMem=  786432000 cpu:       0.6
 (Enter /share/apps/G09A02/g09/l302.exe)
 NPDir=0 NMtPBC=     1 NCelOv=     1 NCel=       1 NClECP=     1 NCelD=      1
         NCelK=      1 NCelE2=     1 NClLst=     1 CellRange=     0.0.
 One-electron integrals computed using PRISM.
 NBasis=    84 RedAO= T  NBF=    84
 NBsUse=    84 1.00D-06 NBFU=    84
 Precomputing XC quadrature grid using
 IXCGrd= 2 IRadAn=           0 IRanWt=          -1 IRanGd=           0 AccXCQ= 1.00D-10.
 NRdTot=     383 NPtTot=       48740 NUsed=       51512 NTot=       51544
 NSgBfM=    90    90    90    90    90 NAtAll=     6     6.
 Leave Link  302 at Wed Nov  3 01:15:18 2010, MaxMem=  786432000 cpu:       2.5
 (Enter /share/apps/G09A02/g09/l303.exe)
 DipDrv:  MaxL=1.
 Leave Link  303 at Wed Nov  3 01:15:18 2010, MaxMem=  786432000 cpu:       0.4
 (Enter /share/apps/G09A02/g09/l401.exe)
 Harris functional with IExCor=10402 diagonalized for initial guess.
 ExpMin= 4.38D-02 ExpMax= 4.56D+03 ExpMxC= 6.82D+02 IAcc=2 IRadAn=         0 AccDes= 0.00D+00
 HarFok:  IExCor=10402 AccDes= 0.00D+00 IRadAn=         0 IDoV= 1
 ScaDFX=  1.000000  1.000000  1.000000  1.000000
 FoFCou: FMM=F IPFlag=           0 FMFlag=      100000 FMFlg1=           0
         NFxFlg=           0 DoJE=T BraDBF=F KetDBF=T FulRan=T
         Omega=  0.000000  0.000000  1.000000  0.000000  0.000000 ICntrl=     500 IOpCl=  0
         NMat0=    1 NMatS0=    1 NMatT0=    0 NMatD0=    1 NMtDS0=    0 NMtDT0=    0
         I1Cent=           4 NGrid=           0.
 Symmetry not used in FoFCou.
 Harris En= -38.5602101616213    
 Initial guess <Sx>= 0.0000 <Sy>= 0.0000 <Sz>= 0.5000 <S**2>= 0.7500 S= 0.5000
 Leave Link  401 at Wed Nov  3 01:15:19 2010, MaxMem=  786432000 cpu:       3.7
 (Enter /share/apps/G09A02/g09/l502.exe)
 UHF open shell SCF:
 Requested convergence on RMS density matrix=1.00D-08 within 128 cycles.
 Requested convergence on MAX density matrix=1.00D-06.
 Requested convergence on             energy=1.00D-06.
 No special actions if energy rises.
 Using DIIS extrapolation, IDIIS=  1040.
 Two-electron integral symmetry not used.
        51445 words used for storage of precomputed grid.
 IEnd=       95163 IEndB=       95163 NGot=   786432000 MDV=   786361668
 LenX=   786361668 LenY=   786353127
 Fock matrices will be formed incrementally for  20 cycles.

 Cycle   1  Pass 1  IDiag  1:
 FoFJK:  IHMeth= 1 ICntrl=     0 DoSepK=T KAlg= 1 I1Cent= 0 FoldK=F
 FoFCou: FMM=F IPFlag=           0 FMFlag=      100000 FMFlg1=           0
         NFxFlg=           0 DoJE=T BraDBF=F KetDBF=F FulRan=T
         Omega=  0.000000  0.000000  1.000000  0.000000  0.000000 ICntrl=     500 IOpCl=  0
         NMat0=    1 NMatS0=    1 NMatT0=    0 NMatD0=    1 NMtDS0=    0 NMtDT0=    0
         I1Cent=           0 NGrid=           0.
 Symmetry not used in FoFCou.
 E= -40.7954411900691    
 DIIS: error= 3.43D-02 at cycle   1 NSaved=   1.
 NSaved= 1 IEnMin= 1 EnMin= -40.7954411900691     IErMin= 1 ErrMin= 3.43D-02
 ErrMax= 3.43D-02 EMaxC= 1.00D-01 BMatC= 2.59D-01 BMatP= 2.59D-01
 IDIUse=3 WtCom= 6.57D-01 WtEn= 3.43D-01
 Coeff-Com:  0.100D+01
 Coeff-En:   0.100D+01
 Coeff:      0.100D+01
 Gap=     0.490 Goal=   None    Shift=    0.000
 Gap=     0.369 Goal=   None    Shift=    0.000
 GapD=    0.369 DampG=1.000 DampE=0.500 DampFc=0.5000 IDamp=-1.
 Damping current iteration by 5.00D-01
 RMSDP=6.17D-03 MaxDP=2.17D-01              OVMax= 1.72D-01

 Cycle   2  Pass 1  IDiag  1:
 RMSU=  2.21D-03    CP:  8.63D-01
 FoFJK:  IHMeth= 1 ICntrl=     0 DoSepK=T KAlg= 1 I1Cent= 0 FoldK=F
 E= -40.8377435104715     Delta-E=       -0.042302320402 Rises=F Damp=T
 DIIS: error= 1.00D-02 at cycle   2 NSaved=   2.
 NSaved= 2 IEnMin= 2 EnMin= -40.8377435104715     IErMin= 2 ErrMin= 1.00D-02
 ErrMax= 1.00D-02 EMaxC= 1.00D-01 BMatC= 2.05D-02 BMatP= 2.59D-01
 IDIUse=3 WtCom= 9.00D-01 WtEn= 1.00D-01
 Coeff-Com: -0.207D+00 0.121D+01
 Coeff-En:   0.000D+00 0.100D+01
 Coeff:     -0.187D+00 0.119D+01
 Gap=     0.508 Goal=   None    Shift=    0.000
 Gap=     0.486 Goal=   None    Shift=    0.000
 RMSDP=3.70D-03 MaxDP=1.40D-01 DE=-4.23D-02 OVMax= 5.84D-02

 Cycle   3  Pass 1  IDiag  1:
 RMSU=  1.11D-03    CP:  7.13D-01  2.13D+00
 FoFJK:  IHMeth= 1 ICntrl=     0 DoSepK=T KAlg= 1 I1Cent= 0 FoldK=F
 E= -40.8794785331513     Delta-E=       -0.041735022680 Rises=F Damp=F
 DIIS: error= 2.59D-03 at cycle   3 NSaved=   3.
 NSaved= 3 IEnMin= 3 EnMin= -40.8794785331513     IErMin= 3 ErrMin= 2.59D-03
 ErrMax= 2.59D-03 EMaxC= 1.00D-01 BMatC= 1.09D-03 BMatP= 2.05D-02
 IDIUse=3 WtCom= 9.74D-01 WtEn= 2.59D-02
 Coeff-Com:  0.301D-01-0.259D+00 0.123D+01
 Coeff-En:   0.000D+00 0.000D+00 0.100D+01
 Coeff:      0.293D-01-0.252D+00 0.122D+01
 Gap=     0.488 Goal=   None    Shift=    0.000
 Gap=     0.513 Goal=   None    Shift=    0.000
 RMSDP=9.09D-04 MaxDP=3.32D-02 DE=-4.17D-02 OVMax= 3.55D-02

 Cycle   4  Pass 1  IDiag  1:
 RMSU=  4.09D-04    CP:  6.81D-01  2.34D+00  1.33D+00
 FoFJK:  IHMeth= 1 ICntrl=     0 DoSepK=T KAlg= 1 I1Cent= 0 FoldK=F
 E= -40.8806293871645     Delta-E=       -0.001150854013 Rises=F Damp=F
 DIIS: error= 7.47D-04 at cycle   4 NSaved=   4.
 NSaved= 4 IEnMin= 4 EnMin= -40.8806293871645     IErMin= 4 ErrMin= 7.47D-04
 ErrMax= 7.47D-04 EMaxC= 1.00D-01 BMatC= 6.85D-05 BMatP= 1.09D-03
 IDIUse=3 WtCom= 9.93D-01 WtEn= 7.47D-03
 Coeff-Com: -0.782D-02 0.113D-01-0.223D+00 0.122D+01
 Coeff-En:   0.000D+00 0.000D+00 0.000D+00 0.100D+01
 Coeff:     -0.776D-02 0.112D-01-0.222D+00 0.122D+01
 Gap=     0.489 Goal=   None    Shift=    0.000
 Gap=     0.512 Goal=   None    Shift=    0.000
 RMSDP=1.85D-04 MaxDP=6.63D-03 DE=-1.15D-03 OVMax= 8.67D-03

 Cycle   5  Pass 1  IDiag  1:
 RMSU=  2.95D-05    CP:  6.75D-01  2.37D+00  1.38D+00  1.26D+00
 FoFJK:  IHMeth= 1 ICntrl=     0 DoSepK=T KAlg= 1 I1Cent= 0 FoldK=F
 E= -40.8807057169036     Delta-E=       -0.000076329739 Rises=F Damp=F
 DIIS: error= 3.77D-04 at cycle   5 NSaved=   5.
 NSaved= 5 IEnMin= 5 EnMin= -40.8807057169036     IErMin= 5 ErrMin= 3.77D-04
 ErrMax= 3.77D-04 EMaxC= 1.00D-01 BMatC= 3.89D-06 BMatP= 6.85D-05
 IDIUse=3 WtCom= 9.96D-01 WtEn= 3.77D-03
 Coeff-Com:  0.121D-02 0.573D-02 0.317D-01-0.396D+00 0.136D+01
 Coeff-En:   0.000D+00 0.000D+00 0.000D+00 0.000D+00 0.100D+01
 Coeff:      0.121D-02 0.571D-02 0.316D-01-0.395D+00 0.136D+01
 Gap=     0.489 Goal=   None    Shift=    0.000
 Gap=     0.510 Goal=   None    Shift=    0.000
 RMSDP=2.36D-05 MaxDP=7.54D-04 DE=-7.63D-05 OVMax= 2.88D-03

 Cycle   6  Pass 1  IDiag  1:
 RMSU=  5.29D-06    CP:  6.74D-01  2.37D+00  1.38D+00  1.28D+00  1.55D+00
 FoFJK:  IHMeth= 1 ICntrl=     0 DoSepK=T KAlg= 1 I1Cent= 0 FoldK=F
 E= -40.8807108086721     Delta-E=       -0.000005091768 Rises=F Damp=F
 DIIS: error= 9.58D-05 at cycle   6 NSaved=   6.
 NSaved= 6 IEnMin= 6 EnMin= -40.8807108086721     IErMin= 6 ErrMin= 9.58D-05
 ErrMax= 9.58D-05 EMaxC= 1.00D-01 BMatC= 3.04D-07 BMatP= 3.89D-06
 IDIUse=1 WtCom= 1.00D+00 WtEn= 0.00D+00
 Coeff-Com:  0.199D-03-0.101D-02 0.908D-02-0.256D-01-0.174D+00 0.119D+01
 Coeff:      0.199D-03-0.101D-02 0.908D-02-0.256D-01-0.174D+00 0.119D+01
 Gap=     0.489 Goal=   None    Shift=    0.000
 Gap=     0.510 Goal=   None    Shift=    0.000
 RMSDP=5.92D-06 MaxDP=1.13D-04 DE=-5.09D-06 OVMax= 7.19D-04

 Cycle   7  Pass 1  IDiag  1:
 RMSU=  2.05D-06    CP:  6.74D-01  2.37D+00  1.38D+00  1.28D+00  1.64D+00
                    CP:  1.52D+00
 FoFJK:  IHMeth= 1 ICntrl=     0 DoSepK=T KAlg= 1 I1Cent= 0 FoldK=F
 E= -40.8807111479219     Delta-E=       -0.000000339250 Rises=F Damp=F
 DIIS: error= 2.95D-05 at cycle   7 NSaved=   7.
 NSaved= 7 IEnMin= 7 EnMin= -40.8807111479219     IErMin= 7 ErrMin= 2.95D-05
 ErrMax= 2.95D-05 EMaxC= 1.00D-01 BMatC= 3.47D-08 BMatP= 3.04D-07
 IDIUse=1 WtCom= 1.00D+00 WtEn= 0.00D+00
 Coeff-Com: -0.203D-03-0.435D-03-0.362D-02 0.405D-01-0.102D+00-0.182D+00
 Coeff-Com:  0.125D+01
 Coeff:     -0.203D-03-0.435D-03-0.362D-02 0.405D-01-0.102D+00-0.182D+00
 Coeff:      0.125D+01
 Gap=     0.489 Goal=   None    Shift=    0.000
 Gap=     0.510 Goal=   None    Shift=    0.000
 RMSDP=2.23D-06 MaxDP=4.35D-05 DE=-3.39D-07 OVMax= 1.96D-04

 Cycle   8  Pass 1  IDiag  1:
 RMSU=  4.59D-07    CP:  6.75D-01  2.37D+00  1.38D+00  1.28D+00  1.65D+00
                    CP:  1.75D+00  1.48D+00
 FoFJK:  IHMeth= 1 ICntrl=     0 DoSepK=T KAlg= 1 I1Cent= 0 FoldK=F
 E= -40.8807111797679     Delta-E=       -0.000000031846 Rises=F Damp=F
 DIIS: error= 6.19D-06 at cycle   8 NSaved=   8.
 NSaved= 8 IEnMin= 8 EnMin= -40.8807111797679     IErMin= 8 ErrMin= 6.19D-06
 ErrMax= 6.19D-06 EMaxC= 1.00D-01 BMatC= 3.16D-09 BMatP= 3.47D-08
 IDIUse=1 WtCom= 1.00D+00 WtEn= 0.00D+00
 Coeff-Com:  0.603D-04 0.240D-03 0.891D-03-0.148D-01 0.588D-01-0.120D-01
 Coeff-Com: -0.559D+00 0.153D+01
 Coeff:      0.603D-04 0.240D-03 0.891D-03-0.148D-01 0.588D-01-0.120D-01
 Coeff:     -0.559D+00 0.153D+01
 Gap=     0.489 Goal=   None    Shift=    0.000
 Gap=     0.510 Goal=   None    Shift=    0.000
 RMSDP=7.19D-07 MaxDP=1.98D-05 DE=-3.18D-08 OVMax= 4.29D-05

 Cycle   9  Pass 1  IDiag  1:
 RMSU=  1.51D-07    CP:  6.75D-01  2.37D+00  1.38D+00  1.28D+00  1.66D+00
                    CP:  1.80D+00  1.63D+00  1.76D+00
 FoFJK:  IHMeth= 1 ICntrl=     0 DoSepK=T KAlg= 1 I1Cent= 0 FoldK=F
 E= -40.8807111825021     Delta-E=       -0.000000002734 Rises=F Damp=F
 DIIS: error= 1.21D-06 at cycle   9 NSaved=   9.
 NSaved= 9 IEnMin= 9 EnMin= -40.8807111825021     IErMin= 9 ErrMin= 1.21D-06
 ErrMax= 1.21D-06 EMaxC= 1.00D-01 BMatC= 1.02D-10 BMatP= 3.16D-09
 IDIUse=1 WtCom= 1.00D+00 WtEn= 0.00D+00
 Coeff-Com: -0.508D-05-0.589D-04-0.183D-03 0.314D-02-0.147D-01 0.910D-02
 Coeff-Com:  0.136D+00-0.504D+00 0.137D+01
 Coeff:     -0.508D-05-0.589D-04-0.183D-03 0.314D-02-0.147D-01 0.910D-02
 Coeff:      0.136D+00-0.504D+00 0.137D+01
 Gap=     0.489 Goal=   None    Shift=    0.000
 Gap=     0.510 Goal=   None    Shift=    0.000
 RMSDP=1.92D-07 MaxDP=6.02D-06 DE=-2.73D-09 OVMax= 8.17D-06

 Cycle  10  Pass 1  IDiag  1:
 RMSU=  3.91D-08    CP:  6.75D-01  2.37D+00  1.38D+00  1.28D+00  1.66D+00
                    CP:  1.80D+00  1.63D+00  1.90D+00  1.47D+00
 FoFJK:  IHMeth= 1 ICntrl=     0 DoSepK=T KAlg= 1 I1Cent= 0 FoldK=F
 E= -40.8807111825923     Delta-E=       -0.000000000090 Rises=F Damp=F
 DIIS: error= 1.96D-07 at cycle  10 NSaved=  10.
 NSaved=10 IEnMin=10 EnMin= -40.8807111825923     IErMin=10 ErrMin= 1.96D-07
 ErrMax= 1.96D-07 EMaxC= 1.00D-01 BMatC= 5.37D-12 BMatP= 1.02D-10
 IDIUse=1 WtCom= 1.00D+00 WtEn= 0.00D+00
 Coeff-Com: -0.717D-06 0.113D-04 0.378D-04-0.573D-03 0.299D-02-0.295D-02
 Coeff-Com: -0.243D-01 0.107D+00-0.452D+00 0.137D+01
 Coeff:     -0.717D-06 0.113D-04 0.378D-04-0.573D-03 0.299D-02-0.295D-02
 Coeff:     -0.243D-01 0.107D+00-0.452D+00 0.137D+01
 Gap=     0.489 Goal=   None    Shift=    0.000
 Gap=     0.510 Goal=   None    Shift=    0.000
 RMSDP=3.78D-08 MaxDP=1.13D-06 DE=-9.02D-11 OVMax= 1.45D-06

 Cycle  11  Pass 1  IDiag  1:
 RMSU=  7.43D-09    CP:  6.75D-01  2.37D+00  1.38D+00  1.28D+00  1.66D+00
                    CP:  1.80D+00  1.63D+00  1.91D+00  1.55D+00  1.45D+00
 FoFJK:  IHMeth= 1 ICntrl=     0 DoSepK=T KAlg= 1 I1Cent= 0 FoldK=F
 E= -40.8807111825983     Delta-E=       -0.000000000006 Rises=F Damp=F
 DIIS: error= 6.58D-08 at cycle  11 NSaved=  11.
 NSaved=11 IEnMin=11 EnMin= -40.8807111825983     IErMin=11 ErrMin= 6.58D-08
 ErrMax= 6.58D-08 EMaxC= 1.00D-01 BMatC= 6.03D-13 BMatP= 5.37D-12
 IDIUse=1 WtCom= 1.00D+00 WtEn= 0.00D+00
 Coeff-Com:  0.247D-06-0.116D-05-0.586D-05 0.657D-04-0.392D-03 0.871D-03
 Coeff-Com:  0.852D-03-0.970D-02 0.837D-01-0.566D+00 0.149D+01
 Coeff:      0.247D-06-0.116D-05-0.586D-05 0.657D-04-0.392D-03 0.871D-03
 Coeff:      0.852D-03-0.970D-02 0.837D-01-0.566D+00 0.149D+01
 Gap=     0.489 Goal=   None    Shift=    0.000
 Gap=     0.510 Goal=   None    Shift=    0.000
 RMSDP=1.03D-08 MaxDP=1.59D-07 DE=-6.02D-12 OVMax= 4.40D-07

 Cycle  12  Pass 1  IDiag  1:
 RMSU=  3.23D-09    CP:  6.75D-01  2.37D+00  1.38D+00  1.28D+00  1.66D+00
                    CP:  1.80D+00  1.63D+00  1.91D+00  1.55D+00  1.56D+00
                    CP:  1.65D+00
 FoFJK:  IHMeth= 1 ICntrl=     0 DoSepK=T KAlg= 1 I1Cent= 0 FoldK=F
 E= -40.8807111825989     Delta-E=       -0.000000000001 Rises=F Damp=F
 DIIS: error= 1.57D-08 at cycle  12 NSaved=  12.
 NSaved=12 IEnMin=12 EnMin= -40.8807111825989     IErMin=12 ErrMin= 1.57D-08
 ErrMax= 1.57D-08 EMaxC= 1.00D-01 BMatC= 3.99D-14 BMatP= 6.03D-13
 IDIUse=1 WtCom= 1.00D+00 WtEn= 0.00D+00
 Coeff-Com:  0.979D-07-0.708D-07-0.191D-06 0.407D-05-0.404D-04-0.630D-04
 Coeff-Com:  0.123D-02-0.471D-02 0.162D-01 0.192D-01-0.408D+00 0.138D+01
 Coeff:      0.979D-07-0.708D-07-0.191D-06 0.407D-05-0.404D-04-0.630D-04
 Coeff:      0.123D-02-0.471D-02 0.162D-01 0.192D-01-0.408D+00 0.138D+01
 Gap=     0.489 Goal=   None    Shift=    0.000
 Gap=     0.510 Goal=   None    Shift=    0.000
 RMSDP=3.60D-09 MaxDP=8.51D-08 DE=-6.11D-13 OVMax= 1.26D-07

 SCF Done:  E(ULC-B+HF-LYP) =  -40.8807111826     A.U. after   12 cycles
             Convg  =    0.3595D-08             -V/T =  2.0046
 <Sx>= 0.0000 <Sy>= 0.0000 <Sz>= 0.5000 <S**2>= 0.7514 S= 0.5007
 <L.S>= 0.000000000000E+00
 KE= 4.069228064410D+01 PE=-1.249174433296D+02 EE= 2.795247569458D+01
 Annihilation of the first spin contaminant:
 S**2 before annihilation     0.7514,   after     0.7500
 Leave Link  502 at Wed Nov  3 01:15:54 2010, MaxMem=  786432000 cpu:     280.7
 (Enter /share/apps/G09A02/g09/l601.exe)
 Copying SCF densities to generalized density rwf, IOpCl= 1 IROHF=0.

 **********************************************************************

            Population analysis using the SCF density.

 **********************************************************************

 Alpha  occ. eigenvalues --  -10.11646  -0.86441  -0.55622  -0.52825  -0.52825
 Alpha  occ. eigenvalues --   -0.42249
 Alpha virt. eigenvalues --    0.06685   0.09426   0.09426   0.10937   0.22423
 Alpha virt. eigenvalues --    0.22423   0.25529   0.27857   0.35938   0.35938
 Alpha virt. eigenvalues --    0.37150   0.41680   0.41680   0.45273   0.63631
 Alpha virt. eigenvalues --    0.63631   0.66098   0.70350   0.70350   0.71512
 Alpha virt. eigenvalues --    0.79171   0.80108   0.80108   0.86399   0.98911
 Alpha virt. eigenvalues --    1.02628   1.02628   1.03884   1.10098   1.10099
 Alpha virt. eigenvalues --    1.26064   1.26064   1.33260   1.40757   1.40757
 Alpha virt. eigenvalues --    1.53956   1.77232   2.06710   2.06710   2.07642
 Alpha virt. eigenvalues --    2.07642   2.11288   2.45898   2.63406   2.78513
 Alpha virt. eigenvalues --    2.78513   2.85580   3.08712   3.09560   3.09560
 Alpha virt. eigenvalues --    3.43837   3.43837   3.48792   3.64997   3.64997
 Alpha virt. eigenvalues --    3.75665   3.84600   3.84600   4.04752   4.14354
 Alpha virt. eigenvalues --    4.30679   4.30679   4.34907   4.35178   4.35178
 Alpha virt. eigenvalues --    4.57974   4.57974   4.58999   5.08958   5.88215
 Alpha virt. eigenvalues --    5.88794   5.88794   7.30019   7.30019   7.90786
 Alpha virt. eigenvalues --    7.90786   7.93810  24.28355
  Beta  occ. eigenvalues --  -10.11489  -0.85986  -0.52848  -0.52722  -0.52722
  Beta virt. eigenvalues --   -0.01683   0.07164   0.09323   0.09323   0.11479
  Beta virt. eigenvalues --    0.22467   0.22467   0.26013   0.28299   0.36019
  Beta virt. eigenvalues --    0.36019   0.39437   0.41627   0.41627   0.49373
  Beta virt. eigenvalues --    0.64115   0.64115   0.66891   0.71608   0.73754
  Beta virt. eigenvalues --    0.73754   0.79177   0.80144   0.80144   0.87031
  Beta virt. eigenvalues --    0.98909   1.03030   1.03030   1.06524   1.10176
  Beta virt. eigenvalues --    1.10176   1.26127   1.26128   1.33488   1.40860
  Beta virt. eigenvalues --    1.40860   1.54933   1.78717   2.06880   2.06880
  Beta virt. eigenvalues --    2.07957   2.07957   2.12561   2.52402   2.71752
  Beta virt. eigenvalues --    2.78664   2.78664   2.89057   3.08777   3.09970
  Beta virt. eigenvalues --    3.09970   3.44062   3.44062   3.48987   3.65132
  Beta virt. eigenvalues --    3.65133   3.76267   3.99477   3.99477   4.06415
  Beta virt. eigenvalues --    4.25819   4.30663   4.30663   4.35165   4.35165
  Beta virt. eigenvalues --    4.36405   4.58025   4.58025   4.59048   5.09135
  Beta virt. eigenvalues --    5.88545   5.88883   5.88883   7.30481   7.30481
  Beta virt. eigenvalues --    7.91068   7.91068   7.94434  24.28567
          Condensed to atoms (all electrons):
              1          2          3          4          5          6
     1  C    5.111099   0.389119   0.402824   0.402824   0.402824  -0.009993
     2  H    0.389119   0.474779  -0.016359  -0.016359  -0.016359  -0.019765
     3  H    0.402824  -0.016359   0.480004  -0.017347  -0.017347   0.000472
     4  H    0.402824  -0.016359  -0.017347   0.480003  -0.017347   0.000472
     5  H    0.402824  -0.016359  -0.017347  -0.017347   0.480003   0.000472
     6  H   -0.009993  -0.019765   0.000472   0.000472   0.000472   1.037849
 Mulliken atomic charges:
              1
     1  C   -0.698697
     2  H    0.204942
     3  H    0.167753
     4  H    0.167755
     5  H    0.167755
     6  H   -0.009508
 Sum of Mulliken atomic charges =   0.00000
 Mulliken charges with hydrogens summed into heavy atoms:
              1
     1  C    0.000000
 Sum of Mulliken charges with hydrogens summed into heavy atoms =   0.00000
          Atomic-Atomic Spin Densities.
              1          2          3          4          5          6
     1  C    0.094112   0.013545  -0.000610  -0.000610  -0.000610  -0.021319
     2  H    0.013545  -0.026664   0.000818   0.000818   0.000818  -0.040391
     3  H   -0.000610   0.000818  -0.001615  -0.000033  -0.000033   0.000890
     4  H   -0.000610   0.000818  -0.000033  -0.001616  -0.000033   0.000890
     5  H   -0.000610   0.000818  -0.000033  -0.000033  -0.001616   0.000890
     6  H   -0.021319  -0.040391   0.000890   0.000890   0.000890   1.027341
 Mulliken atomic spin densities:
              1
     1  C    0.084508
     2  H   -0.051056
     3  H   -0.000583
     4  H   -0.000585
     5  H   -0.000585
     6  H    0.968300
 Sum of Mulliken atomic spin densities =   1.00000
 Electronic spatial extent (au):  <R**2>=             66.2387
 Charge=              0.0000 electrons
 Dipole moment (field-independent basis, Debye):
    X=              0.0000    Y=              0.0000    Z=             -0.1695  Tot=              0.1695
 Quadrupole moment (field-independent basis, Debye-Ang):
   XX=             -9.8849   YY=             -9.8848   ZZ=            -10.5612
   XY=              0.0000   XZ=              0.0000   YZ=              0.0000
 Traceless Quadrupole moment (field-independent basis, Debye-Ang):
   XX=              0.2255   YY=              0.2255   ZZ=             -0.4509
   XY=              0.0000   XZ=              0.0000   YZ=              0.0000
 Octapole moment (field-independent basis, Debye-Ang**2):
  XXX=              0.6730  YYY=              0.0000  ZZZ=            -12.9101  XYY=             -0.6730
  XXY=              0.0000  XXZ=             -4.3697  XZZ=              0.0000  YZZ=              0.0000
  YYZ=             -4.3697  XYZ=              0.0000
 Hexadecapole moment (field-independent basis, Debye-Ang**3):
 XXXX=            -18.3648 YYYY=            -18.3648 ZZZZ=            -89.2446 XXXY=              0.0000
 XXXZ=             -0.4240 YYYX=              0.0000 YYYZ=              0.0000 ZZZX=              0.0000
 ZZZY=              0.0000 XXYY=             -6.1216 XXZZ=            -17.2227 YYZZ=            -17.2227
 XXYZ=              0.0000 YYXZ=              0.4240 ZZXY=              0.0000
 N-N= 1.539197580829D+01 E-N=-1.857404048480D+02  KE= 6.072722380225D+01
                          Isotropic Fermi Contact Couplings
        Atom                 a.u.       MegaHertz       Gauss      10(-4) cm-1
     1  C(13)              0.04079      45.85849      16.36345      15.29675
     2  H(1)              -0.00271     -12.11812      -4.32405      -4.04217
     3  H(1)              -0.00059      -2.61822      -0.93425      -0.87334
     4  H(1)              -0.00059      -2.61817      -0.93423      -0.87333
     5  H(1)              -0.00059      -2.61817      -0.93423      -0.87333
     6  H(1)               0.28503    1274.05582     454.61478     424.97928
 --------------------------------------------------------
       Center         ----  Spin Dipole Couplings  ----
                      3XX-RR        3YY-RR        3ZZ-RR
 --------------------------------------------------------
     1   Atom       -0.059625     -0.059625      0.119251
     2   Atom       -0.043177     -0.043177      0.086353
     3   Atom        0.002821     -0.009239      0.006418
     4   Atom       -0.006224     -0.000194      0.006418
     5   Atom       -0.006224     -0.000194      0.006418
     6   Atom        0.001892      0.001892     -0.003785
 --------------------------------------------------------
                        XY            XZ            YZ
 --------------------------------------------------------
     1   Atom        0.000000      0.000000      0.000000
     2   Atom        0.000000      0.000000      0.000000
     3   Atom        0.000000     -0.006420      0.000000
     4   Atom        0.005222      0.003210      0.005559
     5   Atom       -0.005222      0.003210     -0.005559
     6   Atom        0.000000      0.000000      0.000000
 --------------------------------------------------------


 ---------------------------------------------------------------------------------
              Anisotropic Spin Dipole Couplings in Principal Axis System
 ---------------------------------------------------------------------------------

       Atom             a.u.   MegaHertz   Gauss  10(-4) cm-1        Axes

              Baa    -0.0596    -8.001    -2.855    -2.669  1.0000  0.0000  0.0000
     1 C(13)  Bbb    -0.0596    -8.001    -2.855    -2.669  0.0000  1.0000  0.0000
              Bcc     0.1193    16.002     5.710     5.338  0.0000  0.0000  1.0000
 
              Baa    -0.0432   -23.037    -8.220    -7.684  1.0000  0.0000  0.0000
     2 H(1)   Bbb    -0.0432   -23.037    -8.220    -7.684  0.0000  1.0000  0.0000
              Bcc     0.0864    46.074    16.440    15.369  0.0000  0.0000  1.0000
 
              Baa    -0.0092    -4.929    -1.759    -1.644  0.0000  1.0000  0.0000
     3 H(1)   Bbb    -0.0020    -1.092    -0.390    -0.364  0.7968  0.0000  0.6043
              Bcc     0.0113     6.022     2.149     2.009 -0.6043  0.0000  0.7968
 
              Baa    -0.0092    -4.929    -1.759    -1.644  0.8660 -0.5000  0.0000
     4 H(1)   Bbb    -0.0020    -1.092    -0.390    -0.364  0.3984  0.6900 -0.6043
              Bcc     0.0113     6.022     2.149     2.009  0.3021  0.5233  0.7968
 
              Baa    -0.0092    -4.929    -1.759    -1.644  0.8660  0.5000  0.0000
     5 H(1)   Bbb    -0.0020    -1.092    -0.390    -0.364 -0.3984  0.6900  0.6043
              Bcc     0.0113     6.022     2.149     2.009  0.3021 -0.5233  0.7968
 
              Baa    -0.0038    -2.019    -0.721    -0.674  0.0000  0.0000  1.0000
     6 H(1)   Bbb     0.0019     1.010     0.360     0.337  1.0000  0.0000  0.0000
              Bcc     0.0019     1.010     0.360     0.337  0.0000  1.0000  0.0000
 

 ---------------------------------------------------------------------------------

 No NMR shielding tensors so no spin-rotation constants.
 Leave Link  601 at Wed Nov  3 01:15:54 2010, MaxMem=  786432000 cpu:       3.9
 (Enter /share/apps/G09A02/g09/l9999.exe)
 1\1\GINC-COMPUTE-0-7\SP\ULC-BLYP\6-311+G(3df,2p)\C1H5(2)\WENXINZY\03-N
 ov-2010\0\\#p lc-blyp/6-311+g(3df,2p) nosymm scf=tight\\14 H_CH4\\0,2\
 C\H,1,1.0964332\H,1,1.0895332,2,109.2872905\H,1,1.0895332,2,109.287290
 5,3,120.,0\H,1,1.0895332,2,109.2872905,3,-120.,0\H,2,1.6368028,1,180.,
 3,0.,0\\Version=EM64L-G09RevA.02\HF=-40.8807112\S2=0.751432\S2-1=0.\S2
 A=0.75\RMSD=3.595e-09\Dipole=0.0000007,0.,-0.0666782\Quadrupole=0.1676
 19,0.1676216,-0.3352406,0.,0.0000008,0.\PG=C03V [C3(H1H1C1),3SGV(H1)]\
 \@


 THE GREAT THING ABOUT BEING IMPERFECT IS THE JOY IT BRINGS OTHERS.
   -- SIGN OUTSIDE LAKE AGASSIZ JR. HIGH SCHOOL, FARGO, N.D.
 Job cpu time:  0 days  0 hours  4 minutes 54.8 seconds.
 File lengths (MBytes):  RWF=      9 Int=      0 D2E=      0 Chk=      1 Scr=      1
 Normal termination of Gaussian 09 at Wed Nov  3 01:15:55 2010.
