 Entering Gaussian System, Link 0=/share/apps/G09A02/g09/g09
 Input=./.script12553/Job_H_CH4_1.com
 Output=./.script12553/Job_H_CH4_1.log
 Initial command:
 /share/apps/G09A02/g09/l1.exe /state/partition1/wenxinzy/scratch/Gau-12674.inp -scrdir=/state/partition1/wenxinzy/scratch/
 Default is to use a total of   8 processors:
                                8 via shared-memory
                                1 via Linda
 Entering Link 1 = /share/apps/G09A02/g09/l1.exe PID=     12675.
  
 Copyright (c) 1988,1990,1992,1993,1995,1998,2003,2009, Gaussian, Inc.
                  All Rights Reserved.
  
 This is part of the Gaussian(R) 09 program.  It is based on
 the Gaussian(R) 03 system (copyright 2003, Gaussian, Inc.),
 the Gaussian(R) 98 system (copyright 1998, Gaussian, Inc.),
 the Gaussian(R) 94 system (copyright 1995, Gaussian, Inc.),
 the Gaussian 92(TM) system (copyright 1992, Gaussian, Inc.),
 the Gaussian 90(TM) system (copyright 1990, Gaussian, Inc.),
 the Gaussian 88(TM) system (copyright 1988, Gaussian, Inc.),
 the Gaussian 86(TM) system (copyright 1986, Carnegie Mellon
 University), and the Gaussian 82(TM) system (copyright 1983,
 Carnegie Mellon University). Gaussian is a federally registered
 trademark of Gaussian, Inc.
  
 This software contains proprietary and confidential information,
 including trade secrets, belonging to Gaussian, Inc.
  
 This software is provided under written license and may be
 used, copied, transmitted, or stored only in accord with that
 written license.
  
 The following legend is applicable only to US Government
 contracts under FAR:
  
                    RESTRICTED RIGHTS LEGEND
  
 Use, reproduction and disclosure by the US Government is
 subject to restrictions as set forth in subparagraphs (a)
 and (c) of the Commercial Computer Software - Restricted
 Rights clause in FAR 52.227-19.
  
 Gaussian, Inc.
 340 Quinnipiac St., Bldg. 40, Wallingford CT 06492
  
  
 ---------------------------------------------------------------
 Warning -- This program may not be used in any manner that
 competes with the business of Gaussian, Inc. or will provide
 assistance to any competitor of Gaussian, Inc.  The licensee
 of this program is prohibited from giving any competitor of
 Gaussian, Inc. access to this program.  By using this program,
 the user acknowledges that Gaussian, Inc. is engaged in the
 business of creating and licensing software in the field of
 computational chemistry and represents and warrants to the
 licensee that it is not a competitor of Gaussian, Inc. and that
 it will not use this program in any manner prohibited above.
 ---------------------------------------------------------------
  

 Cite this work as:
 Gaussian 09, Revision A.02,
 M. J. Frisch, G. W. Trucks, H. B. Schlegel, G. E. Scuseria, 
 M. A. Robb, J. R. Cheeseman, G. Scalmani, V. Barone, B. Mennucci, 
 G. A. Petersson, H. Nakatsuji, M. Caricato, X. Li, H. P. Hratchian, 
 A. F. Izmaylov, J. Bloino, G. Zheng, J. L. Sonnenberg, M. Hada, 
 M. Ehara, K. Toyota, R. Fukuda, J. Hasegawa, M. Ishida, T. Nakajima, 
 Y. Honda, O. Kitao, H. Nakai, T. Vreven, J. A. Montgomery, Jr., 
 J. E. Peralta, F. Ogliaro, M. Bearpark, J. J. Heyd, E. Brothers, 
 K. N. Kudin, V. N. Staroverov, R. Kobayashi, J. Normand, 
 K. Raghavachari, A. Rendell, J. C. Burant, S. S. Iyengar, J. Tomasi, 
 M. Cossi, N. Rega, J. M. Millam, M. Klene, J. E. Knox, J. B. Cross, 
 V. Bakken, C. Adamo, J. Jaramillo, R. Gomperts, R. E. Stratmann, 
 O. Yazyev, A. J. Austin, R. Cammi, C. Pomelli, J. W. Ochterski, 
 R. L. Martin, K. Morokuma, V. G. Zakrzewski, G. A. Voth, 
 P. Salvador, J. J. Dannenberg, S. Dapprich, A. D. Daniels, 
 O. Farkas, J. B. Foresman, J. V. Ortiz, J. Cioslowski, 
 and D. J. Fox, Gaussian, Inc., Wallingford CT, 2009.
 
 ******************************************
 Gaussian 09:  EM64L-G09RevA.02 11-Jun-2009
                 3-Nov-2010 
 ******************************************
 %chk=/state/partition1/wenxinzy/scratch/H_CH4_1.chk
 %nproc=8
 Will use up to    8 processors via shared memory.
 %mem=6000mb
 -------------------------------------------
 #p lc-blyp/6-311+g(3df,2p) nosymm scf=tight
 -------------------------------------------
 1/38=1/1;
 2/12=2,15=1,17=6,18=5,40=1/2;
 3/5=4,6=6,7=216,11=2,16=1,25=1,30=1,74=1000402/1,2,3;
 4//1;
 5/5=2,32=2,38=5/2;
 6/7=2,8=2,9=2,10=2,28=1/1;
 99/5=1,9=1/99;
 Leave Link    1 at Wed Nov  3 01:07:43 2010, MaxMem=  786432000 cpu:       0.4
 (Enter /share/apps/G09A02/g09/l101.exe)
 -------
 2 H_CH4
 -------
 Symbolic Z-matrix:
 Charge =  0 Multiplicity = 2
 C
 H1                   C    R1
 H2                   C    R2       H1   A1
 H3                   C    R2       H1   A1       H2    120.     0
 H4                   C    R2       H1   A1       H2   -120.     0
 H5                   H1   R3       C     180.     H2    0.       0
       Variables:
  R1                    1.39053                  
  R2                    1.085                    
  A1                  103.27483                  
  R3                    0.90043                  
 
 NAtoms=      6 NQM=      6 NQMF=      0 NMic=      0 NMicF=      0 NTot=      6.
                    Isotopes and Nuclear Properties:
 (Nuclear quadrupole moments (NQMom) in fm**2, nuclear magnetic moments (NMagM)
  in nuclear magnetons)

  Atom         1           2           3           4           5           6
 IAtWgt=          12           1           1           1           1           1
 AtmWgt=  12.0000000   1.0078250   1.0078250   1.0078250   1.0078250   1.0078250
 NucSpn=           0           1           1           1           1           1
 AtZEff=   0.0000000   0.0000000   0.0000000   0.0000000   0.0000000   0.0000000
 NQMom=    0.0000000   0.0000000   0.0000000   0.0000000   0.0000000   0.0000000
 NMagM=    0.0000000   2.7928460   2.7928460   2.7928460   2.7928460   2.7928460
 Leave Link  101 at Wed Nov  3 01:07:43 2010, MaxMem=  786432000 cpu:       1.0
 (Enter /share/apps/G09A02/g09/l202.exe)
                          Input orientation:                          
 ---------------------------------------------------------------------
 Center     Atomic      Atomic             Coordinates (Angstroms)
 Number     Number       Type             X           Y           Z
 ---------------------------------------------------------------------
      1          6           0        0.000000    0.000000    0.000000
      2          1           0        0.000000    0.000000    1.390534
      3          1           0        1.056013    0.000000   -0.249141
      4          1           0       -0.528007   -0.914534   -0.249141
      5          1           0       -0.528007    0.914534   -0.249141
      6          1           0        0.000000    0.000000    2.290964
 ---------------------------------------------------------------------
                    Distance matrix (angstroms):
                    1          2          3          4          5
     1  C    0.000000
     2  H    1.390534   0.000000
     3  H    1.085005   1.950307   0.000000
     4  H    1.085005   1.950307   1.829069   0.000000
     5  H    1.085005   1.950307   1.829069   1.829069   0.000000
     6  H    2.290964   0.900430   2.750872   2.750872   2.750872
                    6
     6  H    0.000000
 Symmetry turned off by external request.
 Stoichiometry    CH5(2)
 Framework group  C3V[C3(HHC),3SGV(H)]
 Deg. of freedom     4
 Full point group                 C3V     NOp   6
 Rotational constants (GHZ):    149.8897500     58.7743542     58.7743542
 Leave Link  202 at Wed Nov  3 01:07:43 2010, MaxMem=  786432000 cpu:       0.1
 (Enter /share/apps/G09A02/g09/l301.exe)
 Standard basis: 6-311+G(3df,2p) (5D, 7F)
 Ernie: Thresh=  0.10000D-02 Tol=  0.10000D-05 Strict=F.
 Integral buffers will be    131072 words long.
 Raffenetti 2 integral format.
 Two-electron integral symmetry is turned off.
    84 basis functions,   113 primitive gaussians,    90 cartesian basis functions
     6 alpha electrons        5 beta electrons
       nuclear repulsion energy        15.2949167326 Hartrees.
 IExCor=10402 DFT=T Ex=LC-B+HF Corr=LYP ExCW=0 ScaHFX=  1.000000
 ScaDFX=  1.000000  1.000000  1.000000  1.000000 ScalE2=  1.000000  1.000000
 IRadAn=      0 IRanWt=     -1 IRanGd=            0 ICorTp=0
  HFx wShort=  0.000000 wLong=  0.470000 cFull=  0.000000 cShort=  0.000000 cLong=  1.000000
  DFx wShort=  0.000000 wLong=  0.470000 cFull=  0.000000 cShort=  0.000000 cLong=  1.000000
 NAtoms=    6 NActive=    6 NUniq=    6 SFac= 7.50D-01 NAtFMM=   80 NAOKFM=F Big=F
 Leave Link  301 at Wed Nov  3 01:07:43 2010, MaxMem=  786432000 cpu:       0.7
 (Enter /share/apps/G09A02/g09/l302.exe)
 NPDir=0 NMtPBC=     1 NCelOv=     1 NCel=       1 NClECP=     1 NCelD=      1
         NCelK=      1 NCelE2=     1 NClLst=     1 CellRange=     0.0.
 One-electron integrals computed using PRISM.
 NBasis=    84 RedAO= T  NBF=    84
 NBsUse=    84 1.00D-06 NBFU=    84
 Precomputing XC quadrature grid using
 IXCGrd= 2 IRadAn=           0 IRanWt=          -1 IRanGd=           0 AccXCQ= 1.00D-10.
 NRdTot=     383 NPtTot=       48740 NUsed=       51512 NTot=       51544
 NSgBfM=    90    90    90    90    90 NAtAll=     6     6.
 Leave Link  302 at Wed Nov  3 01:07:43 2010, MaxMem=  786432000 cpu:       2.6
 (Enter /share/apps/G09A02/g09/l303.exe)
 DipDrv:  MaxL=1.
 Leave Link  303 at Wed Nov  3 01:07:44 2010, MaxMem=  786432000 cpu:       0.9
 (Enter /share/apps/G09A02/g09/l401.exe)
 Harris functional with IExCor=10402 diagonalized for initial guess.
 ExpMin= 4.38D-02 ExpMax= 4.56D+03 ExpMxC= 6.82D+02 IAcc=2 IRadAn=         0 AccDes= 0.00D+00
 HarFok:  IExCor=10402 AccDes= 0.00D+00 IRadAn=         0 IDoV= 1
 ScaDFX=  1.000000  1.000000  1.000000  1.000000
 FoFCou: FMM=F IPFlag=           0 FMFlag=      100000 FMFlg1=           0
         NFxFlg=           0 DoJE=T BraDBF=F KetDBF=T FulRan=T
         Omega=  0.000000  0.000000  1.000000  0.000000  0.000000 ICntrl=     500 IOpCl=  0
         NMat0=    1 NMatS0=    1 NMatT0=    0 NMatD0=    1 NMtDS0=    0 NMtDT0=    0
         I1Cent=           4 NGrid=           0.
 Symmetry not used in FoFCou.
 Harris En= -38.5328400032468    
 Initial guess <Sx>= 0.0000 <Sy>= 0.0000 <Sz>= 0.5000 <S**2>= 0.7500 S= 0.5000
 Leave Link  401 at Wed Nov  3 01:07:44 2010, MaxMem=  786432000 cpu:       3.7
 (Enter /share/apps/G09A02/g09/l502.exe)
 UHF open shell SCF:
 Requested convergence on RMS density matrix=1.00D-08 within 128 cycles.
 Requested convergence on MAX density matrix=1.00D-06.
 Requested convergence on             energy=1.00D-06.
 No special actions if energy rises.
 Using DIIS extrapolation, IDIIS=  1040.
 Two-electron integral symmetry not used.
        51445 words used for storage of precomputed grid.
 IEnd=       95163 IEndB=       95163 NGot=   786432000 MDV=   786361668
 LenX=   786361668 LenY=   786353127
 Fock matrices will be formed incrementally for  20 cycles.

 Cycle   1  Pass 1  IDiag  1:
 FoFJK:  IHMeth= 1 ICntrl=     0 DoSepK=T KAlg= 1 I1Cent= 0 FoldK=F
 FoFCou: FMM=F IPFlag=           0 FMFlag=      100000 FMFlg1=           0
         NFxFlg=           0 DoJE=T BraDBF=F KetDBF=F FulRan=T
         Omega=  0.000000  0.000000  1.000000  0.000000  0.000000 ICntrl=     500 IOpCl=  0
         NMat0=    1 NMatS0=    1 NMatT0=    0 NMatD0=    1 NMtDS0=    0 NMtDT0=    0
         I1Cent=           0 NGrid=           0.
 Symmetry not used in FoFCou.
 E= -40.8192569601258    
 DIIS: error= 2.63D-02 at cycle   1 NSaved=   1.
 NSaved= 1 IEnMin= 1 EnMin= -40.8192569601258     IErMin= 1 ErrMin= 2.63D-02
 ErrMax= 2.63D-02 EMaxC= 1.00D-01 BMatC= 1.31D-01 BMatP= 1.31D-01
 IDIUse=3 WtCom= 7.37D-01 WtEn= 2.63D-01
 Coeff-Com:  0.100D+01
 Coeff-En:   0.100D+01
 Coeff:      0.100D+01
 Gap=     0.371 Goal=   None    Shift=    0.000
 Gap=     0.539 Goal=   None    Shift=    0.000
 GapD=    0.371 DampG=1.000 DampE=0.500 DampFc=0.5000 IDamp=-1.
 Damping current iteration by 5.00D-01
 RMSDP=4.19D-03 MaxDP=1.42D-01              OVMax= 1.19D-01

 Cycle   2  Pass 1  IDiag  1:
 RMSU=  1.63D-03    CP:  9.19D-01
 FoFJK:  IHMeth= 1 ICntrl=     0 DoSepK=T KAlg= 1 I1Cent= 0 FoldK=F
 E= -40.8394152405015     Delta-E=       -0.020158280376 Rises=F Damp=T
 DIIS: error= 7.89D-03 at cycle   2 NSaved=   2.
 NSaved= 2 IEnMin= 2 EnMin= -40.8394152405015     IErMin= 2 ErrMin= 7.89D-03
 ErrMax= 7.89D-03 EMaxC= 1.00D-01 BMatC= 1.22D-02 BMatP= 1.31D-01
 IDIUse=3 WtCom= 9.21D-01 WtEn= 7.89D-02
 Coeff-Com: -0.222D+00 0.122D+01
 Coeff-En:   0.000D+00 0.100D+01
 Coeff:     -0.204D+00 0.120D+01
 Gap=     0.403 Goal=   None    Shift=    0.000
 Gap=     0.548 Goal=   None    Shift=    0.000
 RMSDP=3.39D-03 MaxDP=1.18D-01 DE=-2.02D-02 OVMax= 5.44D-02

 Cycle   3  Pass 1  IDiag  1:
 RMSU=  1.43D-03    CP:  7.91D-01  2.36D+00
 FoFJK:  IHMeth= 1 ICntrl=     0 DoSepK=T KAlg= 1 I1Cent= 0 FoldK=F
 E= -40.8598475278961     Delta-E=       -0.020432287395 Rises=F Damp=F
 DIIS: error= 2.91D-03 at cycle   3 NSaved=   3.
 NSaved= 3 IEnMin= 3 EnMin= -40.8598475278961     IErMin= 3 ErrMin= 2.91D-03
 ErrMax= 2.91D-03 EMaxC= 1.00D-01 BMatC= 1.18D-03 BMatP= 1.22D-02
 IDIUse=3 WtCom= 9.71D-01 WtEn= 2.91D-02
 Coeff-Com:  0.330D-02-0.228D+00 0.122D+01
 Coeff-En:   0.000D+00 0.000D+00 0.100D+01
 Coeff:      0.320D-02-0.221D+00 0.122D+01
 Gap=     0.401 Goal=   None    Shift=    0.000
 Gap=     0.537 Goal=   None    Shift=    0.000
 RMSDP=1.10D-03 MaxDP=3.49D-02 DE=-2.04D-02 OVMax= 2.83D-02

 Cycle   4  Pass 1  IDiag  1:
 RMSU=  3.45D-04    CP:  7.51D-01  2.72D+00  1.38D+00
 FoFJK:  IHMeth= 1 ICntrl=     0 DoSepK=T KAlg= 1 I1Cent= 0 FoldK=F
 E= -40.8608412466136     Delta-E=       -0.000993718717 Rises=F Damp=F
 DIIS: error= 9.98D-04 at cycle   4 NSaved=   4.
 NSaved= 4 IEnMin= 4 EnMin= -40.8608412466136     IErMin= 4 ErrMin= 9.98D-04
 ErrMax= 9.98D-04 EMaxC= 1.00D-01 BMatC= 1.25D-04 BMatP= 1.18D-03
 IDIUse=3 WtCom= 9.90D-01 WtEn= 9.98D-03
 Coeff-Com:  0.577D-02-0.375D-01-0.248D+00 0.128D+01
 Coeff-En:   0.000D+00 0.000D+00 0.000D+00 0.100D+01
 Coeff:      0.571D-02-0.372D-01-0.245D+00 0.128D+01
 Gap=     0.405 Goal=   None    Shift=    0.000
 Gap=     0.540 Goal=   None    Shift=    0.000
 RMSDP=3.49D-04 MaxDP=1.06D-02 DE=-9.94D-04 OVMax= 1.13D-02

 Cycle   5  Pass 1  IDiag  1:
 RMSU=  3.94D-05    CP:  7.38D-01  2.82D+00  1.49D+00  1.43D+00
 FoFJK:  IHMeth= 1 ICntrl=     0 DoSepK=T KAlg= 1 I1Cent= 0 FoldK=F
 E= -40.8609587685598     Delta-E=       -0.000117521946 Rises=F Damp=F
 DIIS: error= 3.26D-04 at cycle   5 NSaved=   5.
 NSaved= 5 IEnMin= 5 EnMin= -40.8609587685598     IErMin= 5 ErrMin= 3.26D-04
 ErrMax= 3.26D-04 EMaxC= 1.00D-01 BMatC= 8.69D-06 BMatP= 1.25D-04
 IDIUse=3 WtCom= 9.97D-01 WtEn= 3.26D-03
 Coeff-Com: -0.125D-02 0.203D-01-0.315D-01-0.206D+00 0.122D+01
 Coeff-En:   0.000D+00 0.000D+00 0.000D+00 0.000D+00 0.100D+01
 Coeff:     -0.125D-02 0.203D-01-0.314D-01-0.205D+00 0.122D+01
 Gap=     0.405 Goal=   None    Shift=    0.000
 Gap=     0.540 Goal=   None    Shift=    0.000
 RMSDP=3.75D-05 MaxDP=7.53D-04 DE=-1.18D-04 OVMax= 2.27D-03

 Cycle   6  Pass 1  IDiag  1:
 RMSU=  1.44D-05    CP:  7.37D-01  2.82D+00  1.50D+00  1.47D+00  1.54D+00
 FoFJK:  IHMeth= 1 ICntrl=     0 DoSepK=T KAlg= 1 I1Cent= 0 FoldK=F
 E= -40.8609665520697     Delta-E=       -0.000007783510 Rises=F Damp=F
 DIIS: error= 9.98D-05 at cycle   6 NSaved=   6.
 NSaved= 6 IEnMin= 6 EnMin= -40.8609665520697     IErMin= 6 ErrMin= 9.98D-05
 ErrMax= 9.98D-05 EMaxC= 1.00D-01 BMatC= 9.95D-07 BMatP= 8.69D-06
 IDIUse=1 WtCom= 1.00D+00 WtEn= 0.00D+00
 Coeff-Com: -0.338D-03 0.203D-02 0.254D-01-0.100D+00-0.144D+00 0.122D+01
 Coeff:     -0.338D-03 0.203D-02 0.254D-01-0.100D+00-0.144D+00 0.122D+01
 Gap=     0.405 Goal=   None    Shift=    0.000
 Gap=     0.540 Goal=   None    Shift=    0.000
 RMSDP=1.37D-05 MaxDP=3.08D-04 DE=-7.78D-06 OVMax= 7.32D-04

 Cycle   7  Pass 1  IDiag  1:
 RMSU=  4.29D-06    CP:  7.37D-01  2.81D+00  1.50D+00  1.47D+00  1.74D+00
                    CP:  1.42D+00
 FoFJK:  IHMeth= 1 ICntrl=     0 DoSepK=T KAlg= 1 I1Cent= 0 FoldK=F
 E= -40.8609675109822     Delta-E=       -0.000000958913 Rises=F Damp=F
 DIIS: error= 2.88D-05 at cycle   7 NSaved=   7.
 NSaved= 7 IEnMin= 7 EnMin= -40.8609675109822     IErMin= 7 ErrMin= 2.88D-05
 ErrMax= 2.88D-05 EMaxC= 1.00D-01 BMatC= 1.02D-07 BMatP= 9.95D-07
 IDIUse=1 WtCom= 1.00D+00 WtEn= 0.00D+00
 Coeff-Com:  0.218D-05-0.196D-02-0.773D-02 0.550D-01-0.334D-01-0.532D+00
 Coeff-Com:  0.152D+01
 Coeff:      0.218D-05-0.196D-02-0.773D-02 0.550D-01-0.334D-01-0.532D+00
 Coeff:      0.152D+01
 Gap=     0.405 Goal=   None    Shift=    0.000
 Gap=     0.540 Goal=   None    Shift=    0.000
 RMSDP=5.13D-06 MaxDP=9.84D-05 DE=-9.59D-07 OVMax= 2.41D-04

 Cycle   8  Pass 1  IDiag  1:
 RMSU=  8.97D-07    CP:  7.37D-01  2.81D+00  1.50D+00  1.47D+00  1.78D+00
                    CP:  1.57D+00  1.74D+00
 FoFJK:  IHMeth= 1 ICntrl=     0 DoSepK=T KAlg= 1 I1Cent= 0 FoldK=F
 E= -40.8609676223446     Delta-E=       -0.000000111362 Rises=F Damp=F
 DIIS: error= 7.67D-06 at cycle   8 NSaved=   8.
 NSaved= 8 IEnMin= 8 EnMin= -40.8609676223446     IErMin= 8 ErrMin= 7.67D-06
 ErrMax= 7.67D-06 EMaxC= 1.00D-01 BMatC= 5.71D-09 BMatP= 1.02D-07
 IDIUse=1 WtCom= 1.00D+00 WtEn= 0.00D+00
 Coeff-Com:  0.114D-03 0.345D-03 0.136D-02-0.122D-01 0.181D-01 0.113D+00
 Coeff-Com: -0.541D+00 0.142D+01
 Coeff:      0.114D-03 0.345D-03 0.136D-02-0.122D-01 0.181D-01 0.113D+00
 Coeff:     -0.541D+00 0.142D+01
 Gap=     0.405 Goal=   None    Shift=    0.000
 Gap=     0.540 Goal=   None    Shift=    0.000
 RMSDP=1.25D-06 MaxDP=3.47D-05 DE=-1.11D-07 OVMax= 6.79D-05

 Cycle   9  Pass 1  IDiag  1:
 RMSU=  3.31D-07    CP:  7.37D-01  2.81D+00  1.50D+00  1.47D+00  1.78D+00
                    CP:  1.59D+00  1.89D+00  1.53D+00
 FoFJK:  IHMeth= 1 ICntrl=     0 DoSepK=T KAlg= 1 I1Cent= 0 FoldK=F
 E= -40.8609676284326     Delta-E=       -0.000000006088 Rises=F Damp=F
 DIIS: error= 2.20D-06 at cycle   9 NSaved=   9.
 NSaved= 9 IEnMin= 9 EnMin= -40.8609676284326     IErMin= 9 ErrMin= 2.20D-06
 ErrMax= 2.20D-06 EMaxC= 1.00D-01 BMatC= 4.07D-10 BMatP= 5.71D-09
 IDIUse=1 WtCom= 1.00D+00 WtEn= 0.00D+00
 Coeff-Com: -0.493D-04-0.626D-04-0.553D-03 0.372D-02-0.595D-02-0.310D-01
 Coeff-Com:  0.178D+00-0.666D+00 0.152D+01
 Coeff:     -0.493D-04-0.626D-04-0.553D-03 0.372D-02-0.595D-02-0.310D-01
 Coeff:      0.178D+00-0.666D+00 0.152D+01
 Gap=     0.405 Goal=   None    Shift=    0.000
 Gap=     0.540 Goal=   None    Shift=    0.000
 RMSDP=4.05D-07 MaxDP=1.24D-05 DE=-6.09D-09 OVMax= 2.62D-05

 Cycle  10  Pass 1  IDiag  1:
 RMSU=  9.89D-08    CP:  7.37D-01  2.81D+00  1.50D+00  1.47D+00  1.78D+00
                    CP:  1.59D+00  1.90D+00  1.62D+00  1.53D+00
 FoFJK:  IHMeth= 1 ICntrl=     0 DoSepK=T KAlg= 1 I1Cent= 0 FoldK=F
 E= -40.8609676289904     Delta-E=       -0.000000000558 Rises=F Damp=F
 DIIS: error= 7.63D-07 at cycle  10 NSaved=  10.
 NSaved=10 IEnMin=10 EnMin= -40.8609676289904     IErMin=10 ErrMin= 7.63D-07
 ErrMax= 7.63D-07 EMaxC= 1.00D-01 BMatC= 3.54D-11 BMatP= 4.07D-10
 IDIUse=1 WtCom= 1.00D+00 WtEn= 0.00D+00
 Coeff-Com:  0.116D-04 0.594D-05 0.134D-03-0.599D-03 0.990D-03 0.328D-02
 Coeff-Com: -0.233D-01 0.121D+00-0.521D+00 0.142D+01
 Coeff:      0.116D-04 0.594D-05 0.134D-03-0.599D-03 0.990D-03 0.328D-02
 Coeff:     -0.233D-01 0.121D+00-0.521D+00 0.142D+01
 Gap=     0.405 Goal=   None    Shift=    0.000
 Gap=     0.540 Goal=   None    Shift=    0.000
 RMSDP=1.25D-07 MaxDP=3.63D-06 DE=-5.58D-10 OVMax= 8.07D-06

 Cycle  11  Pass 1  IDiag  1:
 RMSU=  2.79D-08    CP:  7.37D-01  2.81D+00  1.50D+00  1.47D+00  1.78D+00
                    CP:  1.59D+00  1.91D+00  1.62D+00  1.65D+00  1.62D+00
 FoFJK:  IHMeth= 1 ICntrl=     0 DoSepK=T KAlg= 1 I1Cent= 0 FoldK=F
 E= -40.8609676290523     Delta-E=       -0.000000000062 Rises=F Damp=F
 DIIS: error= 2.83D-07 at cycle  11 NSaved=  11.
 NSaved=11 IEnMin=11 EnMin= -40.8609676290523     IErMin=11 ErrMin= 2.83D-07
 ErrMax= 2.83D-07 EMaxC= 1.00D-01 BMatC= 3.49D-12 BMatP= 3.54D-11
 IDIUse=1 WtCom= 1.00D+00 WtEn= 0.00D+00
 Coeff-Com: -0.701D-07 0.935D-06-0.348D-04 0.368D-04 0.808D-04 0.648D-03
 Coeff-Com: -0.578D-02 0.189D-01 0.270D-01-0.482D+00 0.144D+01
 Coeff:     -0.701D-07 0.935D-06-0.348D-04 0.368D-04 0.808D-04 0.648D-03
 Coeff:     -0.578D-02 0.189D-01 0.270D-01-0.482D+00 0.144D+01
 Gap=     0.405 Goal=   None    Shift=    0.000
 Gap=     0.540 Goal=   None    Shift=    0.000
 RMSDP=5.77D-08 MaxDP=2.06D-06 DE=-6.19D-11 OVMax= 2.75D-06

 Cycle  12  Pass 1  IDiag  1:
 RMSU=  5.79D-09    CP:  7.37D-01  2.81D+00  1.50D+00  1.47D+00  1.78D+00
                    CP:  1.58D+00  1.92D+00  1.62D+00  1.67D+00  1.85D+00
                    CP:  1.67D+00
 FoFJK:  IHMeth= 1 ICntrl=     0 DoSepK=T KAlg= 1 I1Cent= 0 FoldK=F
 E= -40.8609676290578     Delta-E=       -0.000000000005 Rises=F Damp=F
 DIIS: error= 8.58D-08 at cycle  12 NSaved=  12.
 NSaved=12 IEnMin=12 EnMin= -40.8609676290578     IErMin=12 ErrMin= 8.58D-08
 ErrMax= 8.58D-08 EMaxC= 1.00D-01 BMatC= 2.14D-13 BMatP= 3.49D-12
 IDIUse=1 WtCom= 1.00D+00 WtEn= 0.00D+00
 Coeff-Com: -0.292D-06 0.614D-07 0.704D-05-0.567D-05-0.168D-04-0.302D-03
 Coeff-Com:  0.257D-02-0.117D-01 0.211D-01 0.753D-01-0.535D+00 0.145D+01
 Coeff:     -0.292D-06 0.614D-07 0.704D-05-0.567D-05-0.168D-04-0.302D-03
 Coeff:      0.257D-02-0.117D-01 0.211D-01 0.753D-01-0.535D+00 0.145D+01
 Gap=     0.405 Goal=   None    Shift=    0.000
 Gap=     0.540 Goal=   None    Shift=    0.000
 RMSDP=1.13D-08 MaxDP=3.84D-07 DE=-5.46D-12 OVMax= 6.70D-07

 Cycle  13  Pass 1  IDiag  1:
 RMSU=  1.21D-09    CP:  7.37D-01  2.81D+00  1.50D+00  1.47D+00  1.78D+00
                    CP:  1.58D+00  1.92D+00  1.62D+00  1.67D+00  1.88D+00
                    CP:  1.84D+00  1.58D+00
 FoFJK:  IHMeth= 1 ICntrl=     0 DoSepK=T KAlg= 1 I1Cent= 0 FoldK=F
 E= -40.8609676290580     Delta-E=        0.000000000000 Rises=F Damp=F
 DIIS: error= 1.37D-08 at cycle  13 NSaved=  13.
 NSaved=13 IEnMin=13 EnMin= -40.8609676290580     IErMin=13 ErrMin= 1.37D-08
 ErrMax= 1.37D-08 EMaxC= 1.00D-01 BMatC= 7.26D-15 BMatP= 2.14D-13
 IDIUse=1 WtCom= 1.00D+00 WtEn= 0.00D+00
 Coeff-Com:  0.150D-06-0.319D-06-0.233D-05 0.799D-05-0.919D-05 0.452D-04
 Coeff-Com: -0.495D-03 0.275D-02-0.680D-02-0.102D-01 0.129D+00-0.500D+00
 Coeff-Com:  0.139D+01
 Coeff:      0.150D-06-0.319D-06-0.233D-05 0.799D-05-0.919D-05 0.452D-04
 Coeff:     -0.495D-03 0.275D-02-0.680D-02-0.102D-01 0.129D+00-0.500D+00
 Coeff:      0.139D+01
 Gap=     0.405 Goal=   None    Shift=    0.000
 Gap=     0.540 Goal=   None    Shift=    0.000
 RMSDP=1.45D-09 MaxDP=6.45D-08 DE=-2.34D-13 OVMax= 9.48D-08

 SCF Done:  E(ULC-B+HF-LYP) =  -40.8609676291     A.U. after   13 cycles
             Convg  =    0.1451D-08             -V/T =  2.0049
 <Sx>= 0.0000 <Sy>= 0.0000 <Sz>= 0.5000 <S**2>= 0.7648 S= 0.5074
 <L.S>= 0.000000000000E+00
 KE= 4.066061346782D+01 PE=-1.245771570130D+02 EE= 2.776065918357D+01
 Annihilation of the first spin contaminant:
 S**2 before annihilation     0.7648,   after     0.7500
 Leave Link  502 at Wed Nov  3 01:08:22 2010, MaxMem=  786432000 cpu:     305.1
 (Enter /share/apps/G09A02/g09/l601.exe)
 Copying SCF densities to generalized density rwf, IOpCl= 1 IROHF=0.

 **********************************************************************

            Population analysis using the SCF density.

 **********************************************************************

 Alpha  occ. eigenvalues --  -10.14608  -0.87324  -0.59676  -0.55322  -0.55322
 Alpha  occ. eigenvalues --   -0.33669
 Alpha virt. eigenvalues --    0.06829   0.09089   0.09089   0.10136   0.22246
 Alpha virt. eigenvalues --    0.22246   0.23451   0.27089   0.34937   0.34937
 Alpha virt. eigenvalues --    0.40559   0.40559   0.41276   0.46904   0.62758
 Alpha virt. eigenvalues --    0.62758   0.63997   0.70075   0.72537   0.72537
 Alpha virt. eigenvalues --    0.76627   0.83519   0.83519   0.90774   0.96112
 Alpha virt. eigenvalues --    1.08784   1.08784   1.11209   1.11209   1.22895
 Alpha virt. eigenvalues --    1.27812   1.27812   1.35580   1.41738   1.41739
 Alpha virt. eigenvalues --    1.53150   1.90868   1.95701   1.95701   2.10069
 Alpha virt. eigenvalues --    2.10069   2.21101   2.54059   2.62903   2.77769
 Alpha virt. eigenvalues --    2.77769   3.02685   3.06286   3.12695   3.12695
 Alpha virt. eigenvalues --    3.14426   3.39048   3.39048   3.62038   3.67738
 Alpha virt. eigenvalues --    3.67738   3.83414   3.83414   3.91720   4.03137
 Alpha virt. eigenvalues --    4.26763   4.26763   4.29443   4.29443   4.45454
 Alpha virt. eigenvalues --    4.45454   4.52679   4.75446   5.30501   5.61021
 Alpha virt. eigenvalues --    5.78097   5.78097   7.22085   7.22085   7.78178
 Alpha virt. eigenvalues --    7.78179   7.80680  24.21781
  Beta  occ. eigenvalues --  -10.13510  -0.84361  -0.54548  -0.54548  -0.53149
  Beta virt. eigenvalues --    0.00898   0.07778   0.09031   0.09031   0.09871
  Beta virt. eigenvalues --    0.22578   0.22578   0.24555   0.28736   0.35393
  Beta virt. eigenvalues --    0.35393   0.40629   0.40629   0.42472   0.49239
  Beta virt. eigenvalues --    0.63826   0.63826   0.67786   0.70852   0.73860
  Beta virt. eigenvalues --    0.73860   0.76820   0.84473   0.84473   0.91940
  Beta virt. eigenvalues --    0.96089   1.09530   1.09530   1.11816   1.11816
  Beta virt. eigenvalues --    1.24873   1.28069   1.28069   1.36573   1.42545
  Beta virt. eigenvalues --    1.42545   1.54578   1.92729   1.98274   1.98274
  Beta virt. eigenvalues --    2.11049   2.11049   2.24814   2.57020   2.67170
  Beta virt. eigenvalues --    2.78889   2.78889   3.03547   3.06679   3.14983
  Beta virt. eigenvalues --    3.14983   3.16629   3.40754   3.40754   3.66102
  Beta virt. eigenvalues --    3.68699   3.68699   3.89237   3.89237   3.93634
  Beta virt. eigenvalues --    4.04535   4.27174   4.27174   4.29428   4.29428
  Beta virt. eigenvalues --    4.46178   4.46178   4.54657   4.75716   5.31570
  Beta virt. eigenvalues --    5.64241   5.78644   5.78644   7.26109   7.26110
  Beta virt. eigenvalues --    7.79823   7.79823   7.86035  24.23235
          Condensed to atoms (all electrons):
              1          2          3          4          5          6
     1  C    5.261443   0.199312   0.406080   0.406079   0.406079  -0.107244
     2  H    0.199312   0.540123  -0.009343  -0.009342  -0.009342   0.216742
     3  H    0.406080  -0.009343   0.452659  -0.017844  -0.017844  -0.000435
     4  H    0.406079  -0.009342  -0.017844   0.452659  -0.017843  -0.000436
     5  H    0.406079  -0.009342  -0.017844  -0.017843   0.452659  -0.000436
     6  H   -0.107244   0.216742  -0.000435  -0.000436  -0.000436   0.952089
 Mulliken atomic charges:
              1
     1  C   -0.571750
     2  H    0.071850
     3  H    0.186727
     4  H    0.186726
     5  H    0.186726
     6  H   -0.060280
 Sum of Mulliken atomic charges =   0.00000
 Mulliken charges with hydrogens summed into heavy atoms:
              1
     1  C    0.000000
 Sum of Mulliken charges with hydrogens summed into heavy atoms =   0.00000
          Atomic-Atomic Spin Densities.
              1          2          3          4          5          6
     1  C    0.735179   0.056383  -0.000270  -0.000270  -0.000270  -0.139070
     2  H    0.056383  -0.196720   0.002440   0.002440   0.002440  -0.039420
     3  H   -0.000270   0.002440  -0.017303   0.001528   0.001528   0.001878
     4  H   -0.000270   0.002440   0.001528  -0.017303   0.001528   0.001878
     5  H   -0.000270   0.002440   0.001528   0.001528  -0.017303   0.001878
     6  H   -0.139070  -0.039420   0.001878   0.001878   0.001878   0.724210
 Mulliken atomic spin densities:
              1
     1  C    0.651681
     2  H   -0.172435
     3  H   -0.010200
     4  H   -0.010200
     5  H   -0.010200
     6  H    0.551354
 Sum of Mulliken atomic spin densities =   1.00000
 Electronic spatial extent (au):  <R**2>=             61.5100
 Charge=              0.0000 electrons
 Dipole moment (field-independent basis, Debye):
    X=              0.0000    Y=              0.0000    Z=             -0.7014  Tot=              0.7014
 Quadrupole moment (field-independent basis, Debye-Ang):
   XX=             -9.5648   YY=             -9.5648   ZZ=            -12.1429
   XY=              0.0000   XZ=              0.0000   YZ=              0.0000
 Traceless Quadrupole moment (field-independent basis, Debye-Ang):
   XX=              0.8594   YY=              0.8594   ZZ=             -1.7187
   XY=              0.0000   XZ=              0.0000   YZ=              0.0000
 Octapole moment (field-independent basis, Debye-Ang**2):
  XXX=              0.8600  YYY=              0.0000  ZZZ=            -14.4329  XYY=             -0.8600
  XXY=              0.0000  XXZ=             -4.1442  XZZ=              0.0000  YZZ=              0.0000
  YYZ=             -4.1442  XYZ=              0.0000
 Hexadecapole moment (field-independent basis, Debye-Ang**3):
 XXXX=            -17.6622 YYYY=            -17.6622 ZZZZ=            -75.2492 XXXY=              0.0000
 XXXZ=             -0.3402 YYYX=              0.0000 YYYZ=              0.0000 ZZZX=              0.0000
 ZZZY=              0.0000 XXYY=             -5.8874 XXZZ=            -14.6774 YYZZ=            -14.6774
 XXYZ=              0.0000 YYXZ=              0.3402 ZZXY=              0.0000
 N-N= 1.529491673259D+01 E-N=-1.840848094663D+02  KE= 6.040563286694D+01
                          Isotropic Fermi Contact Couplings
        Atom                 a.u.       MegaHertz       Gauss      10(-4) cm-1
     1  C(13)              0.16302     183.26480      65.39343      61.13056
     2  H(1)              -0.04774    -213.40459     -76.14806     -71.18411
     3  H(1)              -0.00707     -31.62197     -11.28351     -10.54795
     4  H(1)              -0.00707     -31.62220     -11.28359     -10.54803
     5  H(1)              -0.00707     -31.62220     -11.28359     -10.54803
     6  H(1)               0.16999     759.83873     271.12934     253.45492
 --------------------------------------------------------
       Center         ----  Spin Dipole Couplings  ----
                      3XX-RR        3YY-RR        3ZZ-RR
 --------------------------------------------------------
     1   Atom       -0.409386     -0.409386      0.818771
     2   Atom       -0.120432     -0.120432      0.240864
     3   Atom        0.046087     -0.049403      0.003316
     4   Atom       -0.025530      0.022215      0.003316
     5   Atom       -0.025530      0.022215      0.003316
     6   Atom        0.007072      0.007072     -0.014144
 --------------------------------------------------------
                        XY            XZ            YZ
 --------------------------------------------------------
     1   Atom        0.000000      0.000000      0.000000
     2   Atom        0.000000      0.000000      0.000000
     3   Atom        0.000000     -0.018679      0.000000
     4   Atom        0.041348      0.009339      0.016176
     5   Atom       -0.041348      0.009339     -0.016176
     6   Atom        0.000000      0.000000      0.000000
 --------------------------------------------------------


 ---------------------------------------------------------------------------------
              Anisotropic Spin Dipole Couplings in Principal Axis System
 ---------------------------------------------------------------------------------

       Atom             a.u.   MegaHertz   Gauss  10(-4) cm-1        Axes

              Baa    -0.4094   -54.936   -19.602   -18.325  0.0000  1.0000  0.0000
     1 C(13)  Bbb    -0.4094   -54.936   -19.602   -18.325  1.0000  0.0000  0.0000
              Bcc     0.8188   109.871    39.205    36.649  0.0000  0.0000  1.0000
 
              Baa    -0.1204   -64.257   -22.928   -21.434  0.0000  1.0000  0.0000
     2 H(1)   Bbb    -0.1204   -64.257   -22.928   -21.434  1.0000  0.0000  0.0000
              Bcc     0.2409   128.513    45.857    42.867  0.0000  0.0000  1.0000
 
              Baa    -0.0494   -26.359    -9.406    -8.792  0.0000  1.0000  0.0000
     3 H(1)   Bbb    -0.0037    -1.970    -0.703    -0.657  0.3513  0.0000  0.9363
              Bcc     0.0531    28.329    10.109     9.450  0.9363  0.0000 -0.3513
 
              Baa    -0.0494   -26.359    -9.406    -8.792  0.8660 -0.5000  0.0000
     4 H(1)   Bbb    -0.0037    -1.970    -0.703    -0.657 -0.1757 -0.3042  0.9363
              Bcc     0.0531    28.329    10.109     9.450  0.4681  0.8108  0.3513
 
              Baa    -0.0494   -26.359    -9.406    -8.792  0.8660  0.5000  0.0000
     5 H(1)   Bbb    -0.0037    -1.970    -0.703    -0.657 -0.1757  0.3042  0.9363
              Bcc     0.0531    28.329    10.109     9.450 -0.4681  0.8108 -0.3513
 
              Baa    -0.0141    -7.547    -2.693    -2.517  0.0000  0.0000  1.0000
     6 H(1)   Bbb     0.0071     3.773     1.346     1.259  0.0000  1.0000  0.0000
              Bcc     0.0071     3.773     1.346     1.259  1.0000  0.0000  0.0000
 

 ---------------------------------------------------------------------------------

 No NMR shielding tensors so no spin-rotation constants.
 Leave Link  601 at Wed Nov  3 01:08:23 2010, MaxMem=  786432000 cpu:       3.9
 (Enter /share/apps/G09A02/g09/l9999.exe)
 1\1\GINC-COMPUTE-0-7\SP\ULC-BLYP\6-311+G(3df,2p)\C1H5(2)\WENXINZY\03-N
 ov-2010\0\\#p lc-blyp/6-311+g(3df,2p) nosymm scf=tight\\2 H_CH4\\0,2\C
 \H,1,1.3905336\H,1,1.0850049,2,103.2748275\H,1,1.0850049,2,103.2748275
 ,3,120.,0\H,1,1.0850049,2,103.2748275,3,-120.,0\H,2,0.9004302,1,180.,3
 ,0.,0\\Version=EM64L-G09RevA.02\HF=-40.8609676\S2=0.764775\S2-1=0.\S2A
 =0.750044\RMSD=1.451e-09\Dipole=-0.0000002,0.,-0.27597\Quadrupole=0.63
 89129,0.6389127,-1.2778257,0.,-0.0000021,0.\PG=C03V [C3(H1H1C1),3SGV(H
 1)]\\@


 THOSE WHO ASPIRE NOT TO GUESS AND DIVINE,
 BUT TO DISCOVER AND KNOW, WHO PROPOSE NOT TO DEVISE 
 MIMIC AND FABULOUS WORLDS OF THEIR OWN, BUT TO 
 EXAMINE AND DISSECT THE NATURE OF THIS VERY WORLD 
 ITSELF, MUST GO TO THE FACTS THEMSELVES FOR EVERYTHING.

                               -- FRANCIS BACON, 1620
 Job cpu time:  0 days  0 hours  5 minutes 20.0 seconds.
 File lengths (MBytes):  RWF=      9 Int=      0 D2E=      0 Chk=      1 Scr=      1
 Normal termination of Gaussian 09 at Wed Nov  3 01:08:23 2010.
