 Entering Gaussian System, Link 0=/share/apps/G09A02/g09/g09
 Input=./.script12553/Job_H_CH4_46.com
 Output=./.script12553/Job_H_CH4_46.log
 Initial command:
 /share/apps/G09A02/g09/l1.exe /state/partition1/wenxinzy/scratch/Gau-17243.inp -scrdir=/state/partition1/wenxinzy/scratch/
 Default is to use a total of   8 processors:
                                8 via shared-memory
                                1 via Linda
 Entering Link 1 = /share/apps/G09A02/g09/l1.exe PID=     17244.
  
 Copyright (c) 1988,1990,1992,1993,1995,1998,2003,2009, Gaussian, Inc.
                  All Rights Reserved.
  
 This is part of the Gaussian(R) 09 program.  It is based on
 the Gaussian(R) 03 system (copyright 2003, Gaussian, Inc.),
 the Gaussian(R) 98 system (copyright 1998, Gaussian, Inc.),
 the Gaussian(R) 94 system (copyright 1995, Gaussian, Inc.),
 the Gaussian 92(TM) system (copyright 1992, Gaussian, Inc.),
 the Gaussian 90(TM) system (copyright 1990, Gaussian, Inc.),
 the Gaussian 88(TM) system (copyright 1988, Gaussian, Inc.),
 the Gaussian 86(TM) system (copyright 1986, Carnegie Mellon
 University), and the Gaussian 82(TM) system (copyright 1983,
 Carnegie Mellon University). Gaussian is a federally registered
 trademark of Gaussian, Inc.
  
 This software contains proprietary and confidential information,
 including trade secrets, belonging to Gaussian, Inc.
  
 This software is provided under written license and may be
 used, copied, transmitted, or stored only in accord with that
 written license.
  
 The following legend is applicable only to US Government
 contracts under FAR:
  
                    RESTRICTED RIGHTS LEGEND
  
 Use, reproduction and disclosure by the US Government is
 subject to restrictions as set forth in subparagraphs (a)
 and (c) of the Commercial Computer Software - Restricted
 Rights clause in FAR 52.227-19.
  
 Gaussian, Inc.
 340 Quinnipiac St., Bldg. 40, Wallingford CT 06492
  
  
 ---------------------------------------------------------------
 Warning -- This program may not be used in any manner that
 competes with the business of Gaussian, Inc. or will provide
 assistance to any competitor of Gaussian, Inc.  The licensee
 of this program is prohibited from giving any competitor of
 Gaussian, Inc. access to this program.  By using this program,
 the user acknowledges that Gaussian, Inc. is engaged in the
 business of creating and licensing software in the field of
 computational chemistry and represents and warrants to the
 licensee that it is not a competitor of Gaussian, Inc. and that
 it will not use this program in any manner prohibited above.
 ---------------------------------------------------------------
  

 Cite this work as:
 Gaussian 09, Revision A.02,
 M. J. Frisch, G. W. Trucks, H. B. Schlegel, G. E. Scuseria, 
 M. A. Robb, J. R. Cheeseman, G. Scalmani, V. Barone, B. Mennucci, 
 G. A. Petersson, H. Nakatsuji, M. Caricato, X. Li, H. P. Hratchian, 
 A. F. Izmaylov, J. Bloino, G. Zheng, J. L. Sonnenberg, M. Hada, 
 M. Ehara, K. Toyota, R. Fukuda, J. Hasegawa, M. Ishida, T. Nakajima, 
 Y. Honda, O. Kitao, H. Nakai, T. Vreven, J. A. Montgomery, Jr., 
 J. E. Peralta, F. Ogliaro, M. Bearpark, J. J. Heyd, E. Brothers, 
 K. N. Kudin, V. N. Staroverov, R. Kobayashi, J. Normand, 
 K. Raghavachari, A. Rendell, J. C. Burant, S. S. Iyengar, J. Tomasi, 
 M. Cossi, N. Rega, J. M. Millam, M. Klene, J. E. Knox, J. B. Cross, 
 V. Bakken, C. Adamo, J. Jaramillo, R. Gomperts, R. E. Stratmann, 
 O. Yazyev, A. J. Austin, R. Cammi, C. Pomelli, J. W. Ochterski, 
 R. L. Martin, K. Morokuma, V. G. Zakrzewski, G. A. Voth, 
 P. Salvador, J. J. Dannenberg, S. Dapprich, A. D. Daniels, 
 O. Farkas, J. B. Foresman, J. V. Ortiz, J. Cioslowski, 
 and D. J. Fox, Gaussian, Inc., Wallingford CT, 2009.
 
 ******************************************
 Gaussian 09:  EM64L-G09RevA.02 11-Jun-2009
                 3-Nov-2010 
 ******************************************
 %chk=/state/partition1/wenxinzy/scratch/H_CH4_46.chk
 %nproc=8
 Will use up to    8 processors via shared memory.
 %mem=6000mb
 -------------------------------------------
 #p lc-blyp/6-311+g(3df,2p) nosymm scf=tight
 -------------------------------------------
 1/38=1/1;
 2/12=2,15=1,17=6,18=5,40=1/2;
 3/5=4,6=6,7=216,11=2,16=1,25=1,30=1,74=1000402/1,2,3;
 4//1;
 5/5=2,32=2,38=5/2;
 6/7=2,8=2,9=2,10=2,28=1/1;
 99/5=1,9=1/99;
 Leave Link    1 at Wed Nov  3 01:33:16 2010, MaxMem=  786432000 cpu:       0.5
 (Enter /share/apps/G09A02/g09/l101.exe)
 --------
 47 H_CH4
 --------
 Symbolic Z-matrix:
 Charge =  0 Multiplicity = 2
 C
 H1                   C    R1
 H2                   C    R2       H1   A1
 H3                   C    R2       H1   A1       H2    120.     0
 H4                   C    R2       H1   A1       H2   -120.     0
 H5                   H1   R3       C     180.     H2    0.       0
       Variables:
  R1                    1.08927                  
  R2                    1.08929                  
  A1                  109.46843                  
  R3                    2.94339                  
 
 NAtoms=      6 NQM=      6 NQMF=      0 NMic=      0 NMicF=      0 NTot=      6.
                    Isotopes and Nuclear Properties:
 (Nuclear quadrupole moments (NQMom) in fm**2, nuclear magnetic moments (NMagM)
  in nuclear magnetons)

  Atom         1           2           3           4           5           6
 IAtWgt=          12           1           1           1           1           1
 AtmWgt=  12.0000000   1.0078250   1.0078250   1.0078250   1.0078250   1.0078250
 NucSpn=           0           1           1           1           1           1
 AtZEff=   0.0000000   0.0000000   0.0000000   0.0000000   0.0000000   0.0000000
 NQMom=    0.0000000   0.0000000   0.0000000   0.0000000   0.0000000   0.0000000
 NMagM=    0.0000000   2.7928460   2.7928460   2.7928460   2.7928460   2.7928460
 Leave Link  101 at Wed Nov  3 01:33:17 2010, MaxMem=  786432000 cpu:       1.2
 (Enter /share/apps/G09A02/g09/l202.exe)
                          Input orientation:                          
 ---------------------------------------------------------------------
 Center     Atomic      Atomic             Coordinates (Angstroms)
 Number     Number       Type             X           Y           Z
 ---------------------------------------------------------------------
      1          6           0        0.000000    0.000000    0.000000
      2          1           0        0.000000    0.000000    1.089266
      3          1           0        1.027014    0.000000   -0.363048
      4          1           0       -0.513507   -0.889420   -0.363048
      5          1           0       -0.513507    0.889420   -0.363048
      6          1           0        0.000000    0.000000    4.032661
 ---------------------------------------------------------------------
                    Distance matrix (angstroms):
                    1          2          3          4          5
     1  C    0.000000
     2  H    1.089266   0.000000
     3  H    1.089294   1.778756   0.000000
     4  H    1.089294   1.778756   1.778840   0.000000
     5  H    1.089294   1.778756   1.778840   1.778840   0.000000
     6  H    4.032661   2.943395   4.514091   4.514091   4.514091
                    6
     6  H    0.000000
 Symmetry turned off by external request.
 Stoichiometry    CH5(2)
 Framework group  C3V[C3(HHC),3SGV(H)]
 Deg. of freedom     4
 Full point group                 C3V     NOp   6
 Rotational constants (GHZ):    158.4740995     27.1578472     27.1578472
 Leave Link  202 at Wed Nov  3 01:33:17 2010, MaxMem=  786432000 cpu:       0.0
 (Enter /share/apps/G09A02/g09/l301.exe)
 Standard basis: 6-311+G(3df,2p) (5D, 7F)
 Ernie: Thresh=  0.10000D-02 Tol=  0.10000D-05 Strict=F.
 Integral buffers will be    131072 words long.
 Raffenetti 2 integral format.
 Two-electron integral symmetry is turned off.
    84 basis functions,   113 primitive gaussians,    90 cartesian basis functions
     6 alpha electrons        5 beta electrons
       nuclear repulsion energy        14.7629895807 Hartrees.
 IExCor=10402 DFT=T Ex=LC-B+HF Corr=LYP ExCW=0 ScaHFX=  1.000000
 ScaDFX=  1.000000  1.000000  1.000000  1.000000 ScalE2=  1.000000  1.000000
 IRadAn=      0 IRanWt=     -1 IRanGd=            0 ICorTp=0
  HFx wShort=  0.000000 wLong=  0.470000 cFull=  0.000000 cShort=  0.000000 cLong=  1.000000
  DFx wShort=  0.000000 wLong=  0.470000 cFull=  0.000000 cShort=  0.000000 cLong=  1.000000
 NAtoms=    6 NActive=    6 NUniq=    6 SFac= 7.50D-01 NAtFMM=   80 NAOKFM=F Big=F
 Leave Link  301 at Wed Nov  3 01:33:17 2010, MaxMem=  786432000 cpu:       0.7
 (Enter /share/apps/G09A02/g09/l302.exe)
 NPDir=0 NMtPBC=     1 NCelOv=     1 NCel=       1 NClECP=     1 NCelD=      1
         NCelK=      1 NCelE2=     1 NClLst=     1 CellRange=     0.0.
 One-electron integrals computed using PRISM.
 NBasis=    84 RedAO= T  NBF=    84
 NBsUse=    84 1.00D-06 NBFU=    84
 Precomputing XC quadrature grid using
 IXCGrd= 2 IRadAn=           0 IRanWt=          -1 IRanGd=           0 AccXCQ= 1.00D-10.
 NRdTot=     384 NPtTot=       48740 NUsed=       51519 NTot=       51551
 NSgBfM=    90    90    90    90    90 NAtAll=     6     6.
 Leave Link  302 at Wed Nov  3 01:33:17 2010, MaxMem=  786432000 cpu:       2.5
 (Enter /share/apps/G09A02/g09/l303.exe)
 DipDrv:  MaxL=1.
 Leave Link  303 at Wed Nov  3 01:33:17 2010, MaxMem=  786432000 cpu:       0.4
 (Enter /share/apps/G09A02/g09/l401.exe)
 Harris functional with IExCor=10402 diagonalized for initial guess.
 ExpMin= 4.38D-02 ExpMax= 4.56D+03 ExpMxC= 6.82D+02 IAcc=2 IRadAn=         0 AccDes= 0.00D+00
 HarFok:  IExCor=10402 AccDes= 0.00D+00 IRadAn=         0 IDoV= 1
 ScaDFX=  1.000000  1.000000  1.000000  1.000000
 FoFCou: FMM=F IPFlag=           0 FMFlag=      100000 FMFlg1=           0
         NFxFlg=           0 DoJE=T BraDBF=F KetDBF=T FulRan=T
         Omega=  0.000000  0.000000  1.000000  0.000000  0.000000 ICntrl=     500 IOpCl=  0
         NMat0=    1 NMatS0=    1 NMatT0=    0 NMatD0=    1 NMtDS0=    0 NMtDT0=    0
         I1Cent=           4 NGrid=           0.
 Symmetry not used in FoFCou.
 Harris En= -38.5630264117800    
 Initial guess <Sx>= 0.0000 <Sy>= 0.0000 <Sz>= 0.5000 <S**2>= 0.7500 S= 0.5000
 Leave Link  401 at Wed Nov  3 01:33:18 2010, MaxMem=  786432000 cpu:       3.6
 (Enter /share/apps/G09A02/g09/l502.exe)
 UHF open shell SCF:
 Requested convergence on RMS density matrix=1.00D-08 within 128 cycles.
 Requested convergence on MAX density matrix=1.00D-06.
 Requested convergence on             energy=1.00D-06.
 No special actions if energy rises.
 Using DIIS extrapolation, IDIIS=  1040.
 Two-electron integral symmetry not used.
        51452 words used for storage of precomputed grid.
 IEnd=       95170 IEndB=       95170 NGot=   786432000 MDV=   786361661
 LenX=   786361661 LenY=   786353120
 Fock matrices will be formed incrementally for  20 cycles.

 Cycle   1  Pass 1  IDiag  1:
 FoFJK:  IHMeth= 1 ICntrl=     0 DoSepK=T KAlg= 1 I1Cent= 0 FoldK=F
 FoFCou: FMM=F IPFlag=           0 FMFlag=      100000 FMFlg1=           0
         NFxFlg=           0 DoJE=T BraDBF=F KetDBF=F FulRan=T
         Omega=  0.000000  0.000000  1.000000  0.000000  0.000000 ICntrl=     500 IOpCl=  0
         NMat0=    1 NMatS0=    1 NMatT0=    0 NMatD0=    1 NMtDS0=    0 NMtDT0=    0
         I1Cent=           0 NGrid=           0.
 Symmetry not used in FoFCou.
 E= -40.8004421614281    
 DIIS: error= 3.23D-02 at cycle   1 NSaved=   1.
 NSaved= 1 IEnMin= 1 EnMin= -40.8004421614281     IErMin= 1 ErrMin= 3.23D-02
 ErrMax= 3.23D-02 EMaxC= 1.00D-01 BMatC= 2.54D-01 BMatP= 2.54D-01
 IDIUse=3 WtCom= 6.77D-01 WtEn= 3.23D-01
 Coeff-Com:  0.100D+01
 Coeff-En:   0.100D+01
 Coeff:      0.100D+01
 Gap=     0.514 Goal=   None    Shift=    0.000
 Gap=     0.351 Goal=   None    Shift=    0.000
 GapD=    0.351 DampG=1.000 DampE=0.500 DampFc=0.5000 IDamp=-1.
 Damping current iteration by 5.00D-01
 RMSDP=4.31D-03 MaxDP=1.79D-01              OVMax= 1.63D-01

 Cycle   2  Pass 1  IDiag  1:
 RMSU=  1.68D-03    CP:  9.14D-01
 FoFJK:  IHMeth= 1 ICntrl=     0 DoSepK=T KAlg= 1 I1Cent= 0 FoldK=F
 E= -40.8417630421611     Delta-E=       -0.041320880733 Rises=F Damp=T
 DIIS: error= 1.36D-02 at cycle   2 NSaved=   2.
 NSaved= 2 IEnMin= 2 EnMin= -40.8417630421611     IErMin= 2 ErrMin= 1.36D-02
 ErrMax= 1.36D-02 EMaxC= 1.00D-01 BMatC= 2.16D-02 BMatP= 2.54D-01
 IDIUse=3 WtCom= 8.64D-01 WtEn= 1.36D-01
 Coeff-Com: -0.223D+00 0.122D+01
 Coeff-En:   0.000D+00 0.100D+01
 Coeff:     -0.193D+00 0.119D+01
 Gap=     0.571 Goal=   None    Shift=    0.000
 Gap=     0.470 Goal=   None    Shift=    0.000
 RMSDP=2.27D-03 MaxDP=1.19D-01 DE=-4.13D-02 OVMax= 4.42D-02

 Cycle   3  Pass 1  IDiag  1:
 RMSU=  8.67D-04    CP:  8.43D-01  1.96D+00
 FoFJK:  IHMeth= 1 ICntrl=     0 DoSepK=T KAlg= 1 I1Cent= 0 FoldK=F
 E= -40.8826288736449     Delta-E=       -0.040865831484 Rises=F Damp=F
 DIIS: error= 3.60D-03 at cycle   3 NSaved=   3.
 NSaved= 3 IEnMin= 3 EnMin= -40.8826288736449     IErMin= 3 ErrMin= 3.60D-03
 ErrMax= 3.60D-03 EMaxC= 1.00D-01 BMatC= 9.40D-04 BMatP= 2.16D-02
 IDIUse=3 WtCom= 9.64D-01 WtEn= 3.60D-02
 Coeff-Com:  0.460D-01-0.296D+00 0.125D+01
 Coeff-En:   0.000D+00 0.000D+00 0.100D+01
 Coeff:      0.443D-01-0.286D+00 0.124D+01
 Gap=     0.515 Goal=   None    Shift=    0.000
 Gap=     0.502 Goal=   None    Shift=    0.000
 RMSDP=5.71D-04 MaxDP=3.11D-02 DE=-4.09D-02 OVMax= 3.65D-02

 Cycle   4  Pass 1  IDiag  1:
 RMSU=  2.64D-04    CP:  8.28D-01  2.14D+00  1.31D+00
 FoFJK:  IHMeth= 1 ICntrl=     0 DoSepK=T KAlg= 1 I1Cent= 0 FoldK=F
 E= -40.8835389704567     Delta-E=       -0.000910096812 Rises=F Damp=F
 DIIS: error= 4.87D-04 at cycle   4 NSaved=   4.
 NSaved= 4 IEnMin= 4 EnMin= -40.8835389704567     IErMin= 4 ErrMin= 4.87D-04
 ErrMax= 4.87D-04 EMaxC= 1.00D-01 BMatC= 2.19D-05 BMatP= 9.40D-04
 IDIUse=3 WtCom= 9.95D-01 WtEn= 4.87D-03
 Coeff-Com: -0.413D-02-0.286D-02-0.106D+00 0.111D+01
 Coeff-En:   0.000D+00 0.000D+00 0.000D+00 0.100D+01
 Coeff:     -0.411D-02-0.285D-02-0.106D+00 0.111D+01
 Gap=     0.513 Goal=   None    Shift=    0.000
 Gap=     0.502 Goal=   None    Shift=    0.000
 RMSDP=9.14D-05 MaxDP=4.95D-03 DE=-9.10D-04 OVMax= 5.79D-03

 Cycle   5  Pass 1  IDiag  1:
 RMSU=  3.86D-05    CP:  8.26D-01  2.16D+00  1.34D+00  1.23D+00
 FoFJK:  IHMeth= 1 ICntrl=     0 DoSepK=T KAlg= 1 I1Cent= 0 FoldK=F
 E= -40.8835584672904     Delta-E=       -0.000019496834 Rises=F Damp=F
 DIIS: error= 6.04D-05 at cycle   5 NSaved=   5.
 NSaved= 5 IEnMin= 5 EnMin= -40.8835584672904     IErMin= 5 ErrMin= 6.04D-05
 ErrMax= 6.04D-05 EMaxC= 1.00D-01 BMatC= 2.29D-07 BMatP= 2.19D-05
 IDIUse=1 WtCom= 1.00D+00 WtEn= 0.00D+00
 Coeff-Com:  0.627D-03 0.287D-02 0.122D-01-0.240D+00 0.122D+01
 Coeff:      0.627D-03 0.287D-02 0.122D-01-0.240D+00 0.122D+01
 Gap=     0.513 Goal=   None    Shift=    0.000
 Gap=     0.502 Goal=   None    Shift=    0.000
 RMSDP=1.85D-05 MaxDP=7.61D-04 DE=-1.95D-05 OVMax= 4.79D-04

 Cycle   6  Pass 1  IDiag  1:
 RMSU=  1.95D-06    CP:  8.27D-01  2.16D+00  1.34D+00  1.25D+00  1.42D+00
 FoFJK:  IHMeth= 1 ICntrl=     0 DoSepK=T KAlg= 1 I1Cent= 0 FoldK=F
 E= -40.8835586610213     Delta-E=       -0.000000193731 Rises=F Damp=F
 DIIS: error= 1.19D-05 at cycle   6 NSaved=   6.
 NSaved= 6 IEnMin= 6 EnMin= -40.8835586610213     IErMin= 6 ErrMin= 1.19D-05
 ErrMax= 1.19D-05 EMaxC= 1.00D-01 BMatC= 9.20D-09 BMatP= 2.29D-07
 IDIUse=1 WtCom= 1.00D+00 WtEn= 0.00D+00
 Coeff-Com:  0.932D-05-0.492D-03-0.510D-03 0.257D-01-0.234D+00 0.121D+01
 Coeff:      0.932D-05-0.492D-03-0.510D-03 0.257D-01-0.234D+00 0.121D+01
 Gap=     0.513 Goal=   None    Shift=    0.000
 Gap=     0.502 Goal=   None    Shift=    0.000
 RMSDP=2.97D-06 MaxDP=1.17D-04 DE=-1.94D-07 OVMax= 7.89D-05

 Cycle   7  Pass 1  IDiag  1:
 RMSU=  4.08D-07    CP:  8.27D-01  2.16D+00  1.34D+00  1.26D+00  1.48D+00
                    CP:  1.39D+00
 FoFJK:  IHMeth= 1 ICntrl=     0 DoSepK=T KAlg= 1 I1Cent= 0 FoldK=F
 E= -40.8835586689426     Delta-E=       -0.000000007921 Rises=F Damp=F
 DIIS: error= 3.51D-06 at cycle   7 NSaved=   7.
 NSaved= 7 IEnMin= 7 EnMin= -40.8835586689426     IErMin= 7 ErrMin= 3.51D-06
 ErrMax= 3.51D-06 EMaxC= 1.00D-01 BMatC= 7.96D-10 BMatP= 9.20D-09
 IDIUse=1 WtCom= 1.00D+00 WtEn= 0.00D+00
 Coeff-Com: -0.425D-04-0.148D-03-0.753D-03 0.135D-01-0.619D-01-0.781D-01
 Coeff-Com:  0.113D+01
 Coeff:     -0.425D-04-0.148D-03-0.753D-03 0.135D-01-0.619D-01-0.781D-01
 Coeff:      0.113D+01
 Gap=     0.513 Goal=   None    Shift=    0.000
 Gap=     0.502 Goal=   None    Shift=    0.000
 RMSDP=4.81D-07 MaxDP=1.53D-05 DE=-7.92D-09 OVMax= 1.83D-05

 Cycle   8  Pass 1  IDiag  1:
 RMSU=  8.28D-08    CP:  8.27D-01  2.16D+00  1.34D+00  1.26D+00  1.49D+00
                    CP:  1.50D+00  1.36D+00
 FoFJK:  IHMeth= 1 ICntrl=     0 DoSepK=T KAlg= 1 I1Cent= 0 FoldK=F
 E= -40.8835586695920     Delta-E=       -0.000000000649 Rises=F Damp=F
 DIIS: error= 1.30D-06 at cycle   8 NSaved=   8.
 NSaved= 8 IEnMin= 8 EnMin= -40.8835586695920     IErMin= 8 ErrMin= 1.30D-06
 ErrMax= 1.30D-06 EMaxC= 1.00D-01 BMatC= 1.08D-10 BMatP= 7.96D-10
 IDIUse=1 WtCom= 1.00D+00 WtEn= 0.00D+00
 Coeff-Com:  0.161D-04 0.112D-03 0.430D-03-0.879D-02 0.496D-01-0.693D-01
 Coeff-Com: -0.498D+00 0.153D+01
 Coeff:      0.161D-04 0.112D-03 0.430D-03-0.879D-02 0.496D-01-0.693D-01
 Coeff:     -0.498D+00 0.153D+01
 Gap=     0.513 Goal=   None    Shift=    0.000
 Gap=     0.502 Goal=   None    Shift=    0.000
 RMSDP=1.35D-07 MaxDP=2.66D-06 DE=-6.49D-10 OVMax= 8.90D-06

 Cycle   9  Pass 1  IDiag  1:
 RMSU=  3.04D-08    CP:  8.27D-01  2.16D+00  1.34D+00  1.26D+00  1.49D+00
                    CP:  1.52D+00  1.50D+00  1.86D+00
 FoFJK:  IHMeth= 1 ICntrl=     0 DoSepK=T KAlg= 1 I1Cent= 0 FoldK=F
 E= -40.8835586696887     Delta-E=       -0.000000000097 Rises=F Damp=F
 DIIS: error= 3.41D-07 at cycle   9 NSaved=   9.
 NSaved= 9 IEnMin= 9 EnMin= -40.8835586696887     IErMin= 9 ErrMin= 3.41D-07
 ErrMax= 3.41D-07 EMaxC= 1.00D-01 BMatC= 5.91D-12 BMatP= 1.08D-10
 IDIUse=1 WtCom= 1.00D+00 WtEn= 0.00D+00
 Coeff-Com: -0.288D-06-0.214D-04-0.701D-04 0.156D-02-0.969D-02 0.291D-01
 Coeff-Com:  0.533D-01-0.461D+00 0.139D+01
 Coeff:     -0.288D-06-0.214D-04-0.701D-04 0.156D-02-0.969D-02 0.291D-01
 Coeff:      0.533D-01-0.461D+00 0.139D+01
 Gap=     0.513 Goal=   None    Shift=    0.000
 Gap=     0.502 Goal=   None    Shift=    0.000
 RMSDP=4.04D-08 MaxDP=9.35D-07 DE=-9.67D-11 OVMax= 2.09D-06

 Cycle  10  Pass 1  IDiag  1:
 RMSU=  8.59D-09    CP:  8.27D-01  2.16D+00  1.34D+00  1.26D+00  1.49D+00
                    CP:  1.52D+00  1.51D+00  2.11D+00  1.45D+00
 FoFJK:  IHMeth= 1 ICntrl=     0 DoSepK=T KAlg= 1 I1Cent= 0 FoldK=F
 E= -40.8835586696950     Delta-E=       -0.000000000006 Rises=F Damp=F
 DIIS: error= 5.48D-08 at cycle  10 NSaved=  10.
 NSaved=10 IEnMin=10 EnMin= -40.8835586696950     IErMin=10 ErrMin= 5.48D-08
 ErrMax= 5.48D-08 EMaxC= 1.00D-01 BMatC= 2.14D-13 BMatP= 5.91D-12
 IDIUse=1 WtCom= 1.00D+00 WtEn= 0.00D+00
 Coeff-Com: -0.345D-06 0.823D-05 0.203D-04-0.547D-03 0.353D-02-0.134D-01
 Coeff-Com: -0.103D-01 0.186D+00-0.695D+00 0.153D+01
 Coeff:     -0.345D-06 0.823D-05 0.203D-04-0.547D-03 0.353D-02-0.134D-01
 Coeff:     -0.103D-01 0.186D+00-0.695D+00 0.153D+01
 Gap=     0.513 Goal=   None    Shift=    0.000
 Gap=     0.502 Goal=   None    Shift=    0.000
 RMSDP=6.75D-09 MaxDP=1.34D-07 DE=-6.27D-12 OVMax= 2.87D-07

 SCF Done:  E(ULC-B+HF-LYP) =  -40.8835586697     A.U. after   10 cycles
             Convg  =    0.6750D-08             -V/T =  2.0051
 <Sx>= 0.0000 <Sy>= 0.0000 <Sz>= 0.5000 <S**2>= 0.7500 S= 0.5000
 <L.S>= 0.000000000000E+00
 KE= 4.067554144555D+01 PE=-1.236788106736D+02 EE= 2.735672097759D+01
 Annihilation of the first spin contaminant:
 S**2 before annihilation     0.7500,   after     0.7500
 Leave Link  502 at Wed Nov  3 01:33:47 2010, MaxMem=  786432000 cpu:     230.9
 (Enter /share/apps/G09A02/g09/l601.exe)
 Copying SCF densities to generalized density rwf, IOpCl= 1 IROHF=0.

 **********************************************************************

            Population analysis using the SCF density.

 **********************************************************************

 Alpha  occ. eigenvalues --  -10.11329  -0.85944  -0.52618  -0.52523  -0.52523
 Alpha  occ. eigenvalues --   -0.45018
 Alpha virt. eigenvalues --    0.06257   0.09660   0.09660   0.10622   0.22678
 Alpha virt. eigenvalues --    0.22678   0.22689   0.27351   0.36791   0.36841
 Alpha virt. eigenvalues --    0.36841   0.41866   0.41866   0.42464   0.61836
 Alpha virt. eigenvalues --    0.64714   0.64714   0.68911   0.68911   0.72061
 Alpha virt. eigenvalues --    0.74322   0.79909   0.80287   0.80287   0.92409
 Alpha virt. eigenvalues --    0.99183   0.99188   0.99188   1.10247   1.10247
 Alpha virt. eigenvalues --    1.25206   1.25206   1.26490   1.40980   1.40980
 Alpha virt. eigenvalues --    1.43723   1.69107   2.06621   2.06621   2.07850
 Alpha virt. eigenvalues --    2.07850   2.08349   2.33754   2.51265   2.78778
 Alpha virt. eigenvalues --    2.78778   2.80135   3.09008   3.09008   3.09016
 Alpha virt. eigenvalues --    3.43933   3.43933   3.45066   3.65206   3.65206
 Alpha virt. eigenvalues --    3.65421   3.80166   3.80166   3.88000   4.07952
 Alpha virt. eigenvalues --    4.31084   4.31084   4.32093   4.35663   4.35663
 Alpha virt. eigenvalues --    4.58743   4.58743   4.58753   5.01136   5.89383
 Alpha virt. eigenvalues --    5.89383   5.89423   7.30313   7.30313   7.91481
 Alpha virt. eigenvalues --    7.91482   7.92178  24.29250
  Beta  occ. eigenvalues --  -10.11323  -0.85925  -0.52519  -0.52519  -0.52515
  Beta virt. eigenvalues --   -0.02305   0.06522   0.09576   0.09576   0.11011
  Beta virt. eigenvalues --    0.22666   0.22666   0.23018   0.27314   0.36831
  Beta virt. eigenvalues --    0.36831   0.40150   0.41849   0.41849   0.45631
  Beta virt. eigenvalues --    0.62970   0.64739   0.64739   0.72077   0.73108
  Beta virt. eigenvalues --    0.73108   0.75073   0.79943   0.80290   0.80290
  Beta virt. eigenvalues --    0.94064   0.99182   0.99182   0.99183   1.10244
  Beta virt. eigenvalues --    1.10244   1.25203   1.25203   1.26520   1.40981
  Beta virt. eigenvalues --    1.40981   1.43681   1.69113   2.06628   2.06628
  Beta virt. eigenvalues --    2.07859   2.07859   2.08337   2.50958   2.55050
  Beta virt. eigenvalues --    2.78784   2.78784   2.80162   3.09019   3.09021
  Beta virt. eigenvalues --    3.09021   3.43939   3.43939   3.45095   3.65238
  Beta virt. eigenvalues --    3.65238   3.65431   3.95718   3.95718   4.03022
  Beta virt. eigenvalues --    4.08111   4.31086   4.31086   4.32268   4.35663
  Beta virt. eigenvalues --    4.35663   4.58747   4.58747   4.58755   5.01138
  Beta virt. eigenvalues --    5.89387   5.89387   5.89434   7.30331   7.30331
  Beta virt. eigenvalues --    7.91492   7.91493   7.92202  24.29258
          Condensed to atoms (all electrons):
              1          2          3          4          5          6
     1  C    5.061209   0.397615   0.401268   0.401268   0.401268   0.002451
     2  H    0.397615   0.492322  -0.017570  -0.017570  -0.017570  -0.000583
     3  H    0.401268  -0.017570   0.484087  -0.017102  -0.017102  -0.000051
     4  H    0.401268  -0.017570  -0.017102   0.484087  -0.017102  -0.000051
     5  H    0.401268  -0.017570  -0.017102  -0.017102   0.484087  -0.000051
     6  H    0.002451  -0.000583  -0.000051  -0.000051  -0.000051   0.995970
 Mulliken atomic charges:
              1
     1  C   -0.665079
     2  H    0.163356
     3  H    0.166469
     4  H    0.166470
     5  H    0.166470
     6  H    0.002313
 Sum of Mulliken atomic charges =   0.00000
 Mulliken charges with hydrogens summed into heavy atoms:
              1
     1  C    0.000000
 Sum of Mulliken charges with hydrogens summed into heavy atoms =   0.00000
          Atomic-Atomic Spin Densities.
              1          2          3          4          5          6
     1  C    0.010860   0.000372  -0.000294  -0.000294  -0.000294   0.002146
     2  H    0.000372  -0.010446   0.000706   0.000706   0.000706  -0.001111
     3  H   -0.000294   0.000706  -0.000136  -0.000153  -0.000153  -0.000041
     4  H   -0.000294   0.000706  -0.000153  -0.000136  -0.000153  -0.000041
     5  H   -0.000294   0.000706  -0.000153  -0.000153  -0.000136  -0.000041
     6  H    0.002146  -0.001111  -0.000041  -0.000041  -0.000041   0.995867
 Mulliken atomic spin densities:
              1
     1  C    0.012498
     2  H   -0.009067
     3  H   -0.000070
     4  H   -0.000070
     5  H   -0.000070
     6  H    0.996779
 Sum of Mulliken atomic spin densities =   1.00000
 Electronic spatial extent (au):  <R**2>=             97.1382
 Charge=              0.0000 electrons
 Dipole moment (field-independent basis, Debye):
    X=              0.0000    Y=              0.0000    Z=              0.0120  Tot=              0.0120
 Quadrupole moment (field-independent basis, Debye-Ang):
   XX=             -9.9513   YY=             -9.9513   ZZ=             -9.8433
   XY=              0.0000   XZ=              0.0000   YZ=              0.0000
 Traceless Quadrupole moment (field-independent basis, Debye-Ang):
   XX=             -0.0360   YY=             -0.0360   ZZ=              0.0720
   XY=              0.0000   XZ=              0.0000   YZ=              0.0000
 Octapole moment (field-independent basis, Debye-Ang**2):
  XXX=              0.6628  YYY=              0.0000  ZZZ=            -15.7331  XYY=             -0.6628
  XXY=              0.0000  XXZ=             -6.2396  XZZ=              0.0000  YZZ=              0.0000
  YYZ=             -6.2396  XYZ=              0.0000
 Hexadecapole moment (field-independent basis, Debye-Ang**3):
 XXXX=            -18.4943 YYYY=            -18.4943 ZZZZ=           -154.2185 XXXY=              0.0000
 XXXZ=             -0.4215 YYYX=              0.0000 YYYZ=              0.0000 ZZZX=              0.0000
 ZZZY=              0.0000 XXYY=             -6.1648 XXZZ=            -29.6876 YYZZ=            -29.6876
 XXYZ=              0.0000 YYXZ=              0.4215 ZZXY=              0.0000
 N-N= 1.476298958073D+01 E-N=-1.843587604825D+02  KE= 6.076831378377D+01
                          Isotropic Fermi Contact Couplings
        Atom                 a.u.       MegaHertz       Gauss      10(-4) cm-1
     1  C(13)              0.00121       1.36309       0.48638       0.45468
     2  H(1)               0.00022       1.00024       0.35691       0.33365
     3  H(1)              -0.00001      -0.04656      -0.01661      -0.01553
     4  H(1)              -0.00001      -0.04656      -0.01662      -0.01553
     5  H(1)              -0.00001      -0.04656      -0.01662      -0.01553
     6  H(1)               0.28623    1279.42280     456.52985     426.76951
 --------------------------------------------------------
       Center         ----  Spin Dipole Couplings  ----
                      3XX-RR        3YY-RR        3ZZ-RR
 --------------------------------------------------------
     1   Atom       -0.004516     -0.004516      0.009032
     2   Atom       -0.006404     -0.006404      0.012809
     3   Atom       -0.001117     -0.001820      0.002937
     4   Atom       -0.001644     -0.001293      0.002937
     5   Atom       -0.001644     -0.001293      0.002937
     6   Atom        0.000014      0.000014     -0.000029
 --------------------------------------------------------
                        XY            XZ            YZ
 --------------------------------------------------------
     1   Atom        0.000000      0.000000      0.000000
     2   Atom        0.000000      0.000000      0.000000
     3   Atom        0.000000     -0.001179      0.000000
     4   Atom        0.000304      0.000590      0.001021
     5   Atom       -0.000304      0.000590     -0.001021
     6   Atom        0.000000      0.000000      0.000000
 --------------------------------------------------------


 ---------------------------------------------------------------------------------
              Anisotropic Spin Dipole Couplings in Principal Axis System
 ---------------------------------------------------------------------------------

       Atom             a.u.   MegaHertz   Gauss  10(-4) cm-1        Axes

              Baa    -0.0045    -0.606    -0.216    -0.202  0.0000  1.0000  0.0000
     1 C(13)  Bbb    -0.0045    -0.606    -0.216    -0.202  1.0000  0.0000  0.0000
              Bcc     0.0090     1.212     0.432     0.404  0.0000  0.0000  1.0000
 
              Baa    -0.0064    -3.417    -1.219    -1.140  0.0000  1.0000  0.0000
     2 H(1)   Bbb    -0.0064    -3.417    -1.219    -1.140  1.0000  0.0000  0.0000
              Bcc     0.0128     6.834     2.439     2.280  0.0000  0.0000  1.0000
 
              Baa    -0.0018    -0.971    -0.346    -0.324  0.0000  1.0000  0.0000
     3 H(1)   Bbb    -0.0014    -0.766    -0.273    -0.255  0.9655  0.0000  0.2604
              Bcc     0.0033     1.737     0.620     0.579 -0.2604  0.0000  0.9655
 
              Baa    -0.0018    -0.971    -0.346    -0.324  0.8660 -0.5000  0.0000
     4 H(1)   Bbb    -0.0014    -0.766    -0.273    -0.255  0.4828  0.8362 -0.2604
              Bcc     0.0033     1.737     0.620     0.579  0.1302  0.2255  0.9655
 
              Baa    -0.0018    -0.971    -0.346    -0.324  0.8660  0.5000  0.0000
     5 H(1)   Bbb    -0.0014    -0.766    -0.273    -0.255 -0.4828  0.8362  0.2604
              Bcc     0.0033     1.737     0.620     0.579  0.1302 -0.2255  0.9655
 
              Baa     0.0000    -0.015    -0.005    -0.005  0.0000  0.0000  1.0000
     6 H(1)   Bbb     0.0000     0.008     0.003     0.003  1.0000  0.0000  0.0000
              Bcc     0.0000     0.008     0.003     0.003  0.0000  1.0000  0.0000
 

 ---------------------------------------------------------------------------------

 No NMR shielding tensors so no spin-rotation constants.
 Leave Link  601 at Wed Nov  3 01:33:47 2010, MaxMem=  786432000 cpu:       3.9
 (Enter /share/apps/G09A02/g09/l9999.exe)
 1\1\GINC-COMPUTE-0-7\SP\ULC-BLYP\6-311+G(3df,2p)\C1H5(2)\WENXINZY\03-N
 ov-2010\0\\#p lc-blyp/6-311+g(3df,2p) nosymm scf=tight\\47 H_CH4\\0,2\
 C\H,1,1.0892663\H,1,1.0892938,2,109.4684284\H,1,1.0892938,2,109.468428
 4,3,120.,0\H,1,1.0892938,2,109.4684284,3,-120.,0\H,2,2.9433948,1,180.,
 3,0.,0\\Version=EM64L-G09RevA.02\HF=-40.8835587\S2=0.750022\S2-1=0.\S2
 A=0.75\RMSD=6.750e-09\Dipole=0.0000002,0.,0.0047283\Quadrupole=-0.0267
 812,-0.0267785,0.0535597,0.,-0.0000005,0.\PG=C03V [C3(H1H1C1),3SGV(H1)
 ]\\@


 ALL PAPERS THAT YOU SAVE WILL NEVER BE NEEDED UNTIL
 SUCH TIME AS THEY ARE DISPOSED OF, WHEN THEY BECOME
 ESSENTIAL.

           -- JOHN CORCORAN IN
              PAUL DICKSON'S "THE OFFICIAL RULES"
 Job cpu time:  0 days  0 hours  4 minutes  4.8 seconds.
 File lengths (MBytes):  RWF=      9 Int=      0 D2E=      0 Chk=      1 Scr=      1
 Normal termination of Gaussian 09 at Wed Nov  3 01:33:47 2010.
