 Entering Gaussian System, Link 0=/share/apps/G09A02/g09/g09
 Input=./.script12553/Job_H_CH4_7.com
 Output=./.script12553/Job_H_CH4_7.log
 Initial command:
 /share/apps/G09A02/g09/l1.exe /state/partition1/wenxinzy/scratch/Gau-13289.inp -scrdir=/state/partition1/wenxinzy/scratch/
 Default is to use a total of   8 processors:
                                8 via shared-memory
                                1 via Linda
 Entering Link 1 = /share/apps/G09A02/g09/l1.exe PID=     13290.
  
 Copyright (c) 1988,1990,1992,1993,1995,1998,2003,2009, Gaussian, Inc.
                  All Rights Reserved.
  
 This is part of the Gaussian(R) 09 program.  It is based on
 the Gaussian(R) 03 system (copyright 2003, Gaussian, Inc.),
 the Gaussian(R) 98 system (copyright 1998, Gaussian, Inc.),
 the Gaussian(R) 94 system (copyright 1995, Gaussian, Inc.),
 the Gaussian 92(TM) system (copyright 1992, Gaussian, Inc.),
 the Gaussian 90(TM) system (copyright 1990, Gaussian, Inc.),
 the Gaussian 88(TM) system (copyright 1988, Gaussian, Inc.),
 the Gaussian 86(TM) system (copyright 1986, Carnegie Mellon
 University), and the Gaussian 82(TM) system (copyright 1983,
 Carnegie Mellon University). Gaussian is a federally registered
 trademark of Gaussian, Inc.
  
 This software contains proprietary and confidential information,
 including trade secrets, belonging to Gaussian, Inc.
  
 This software is provided under written license and may be
 used, copied, transmitted, or stored only in accord with that
 written license.
  
 The following legend is applicable only to US Government
 contracts under FAR:
  
                    RESTRICTED RIGHTS LEGEND
  
 Use, reproduction and disclosure by the US Government is
 subject to restrictions as set forth in subparagraphs (a)
 and (c) of the Commercial Computer Software - Restricted
 Rights clause in FAR 52.227-19.
  
 Gaussian, Inc.
 340 Quinnipiac St., Bldg. 40, Wallingford CT 06492
  
  
 ---------------------------------------------------------------
 Warning -- This program may not be used in any manner that
 competes with the business of Gaussian, Inc. or will provide
 assistance to any competitor of Gaussian, Inc.  The licensee
 of this program is prohibited from giving any competitor of
 Gaussian, Inc. access to this program.  By using this program,
 the user acknowledges that Gaussian, Inc. is engaged in the
 business of creating and licensing software in the field of
 computational chemistry and represents and warrants to the
 licensee that it is not a competitor of Gaussian, Inc. and that
 it will not use this program in any manner prohibited above.
 ---------------------------------------------------------------
  

 Cite this work as:
 Gaussian 09, Revision A.02,
 M. J. Frisch, G. W. Trucks, H. B. Schlegel, G. E. Scuseria, 
 M. A. Robb, J. R. Cheeseman, G. Scalmani, V. Barone, B. Mennucci, 
 G. A. Petersson, H. Nakatsuji, M. Caricato, X. Li, H. P. Hratchian, 
 A. F. Izmaylov, J. Bloino, G. Zheng, J. L. Sonnenberg, M. Hada, 
 M. Ehara, K. Toyota, R. Fukuda, J. Hasegawa, M. Ishida, T. Nakajima, 
 Y. Honda, O. Kitao, H. Nakai, T. Vreven, J. A. Montgomery, Jr., 
 J. E. Peralta, F. Ogliaro, M. Bearpark, J. J. Heyd, E. Brothers, 
 K. N. Kudin, V. N. Staroverov, R. Kobayashi, J. Normand, 
 K. Raghavachari, A. Rendell, J. C. Burant, S. S. Iyengar, J. Tomasi, 
 M. Cossi, N. Rega, J. M. Millam, M. Klene, J. E. Knox, J. B. Cross, 
 V. Bakken, C. Adamo, J. Jaramillo, R. Gomperts, R. E. Stratmann, 
 O. Yazyev, A. J. Austin, R. Cammi, C. Pomelli, J. W. Ochterski, 
 R. L. Martin, K. Morokuma, V. G. Zakrzewski, G. A. Voth, 
 P. Salvador, J. J. Dannenberg, S. Dapprich, A. D. Daniels, 
 O. Farkas, J. B. Foresman, J. V. Ortiz, J. Cioslowski, 
 and D. J. Fox, Gaussian, Inc., Wallingford CT, 2009.
 
 ******************************************
 Gaussian 09:  EM64L-G09RevA.02 11-Jun-2009
                 3-Nov-2010 
 ******************************************
 %chk=/state/partition1/wenxinzy/scratch/H_CH4_7.chk
 %nproc=8
 Will use up to    8 processors via shared memory.
 %mem=6000mb
 -------------------------------------------
 #p lc-blyp/6-311+g(3df,2p) nosymm scf=tight
 -------------------------------------------
 1/38=1/1;
 2/12=2,15=1,17=6,18=5,40=1/2;
 3/5=4,6=6,7=216,11=2,16=1,25=1,30=1,74=1000402/1,2,3;
 4//1;
 5/5=2,32=2,38=5/2;
 6/7=2,8=2,9=2,10=2,28=1/1;
 99/5=1,9=1/99;
 Leave Link    1 at Wed Nov  3 01:11:33 2010, MaxMem=  786432000 cpu:       0.3
 (Enter /share/apps/G09A02/g09/l101.exe)
 -------
 8 H_CH4
 -------
 Symbolic Z-matrix:
 Charge =  0 Multiplicity = 2
 C
 H1                   C    R1
 H2                   C    R2       H1   A1
 H3                   C    R2       H1   A1       H2    120.     0
 H4                   C    R2       H1   A1       H2   -120.     0
 H5                   H1   R3       C     180.     H2    0.       0
       Variables:
  R1                    1.13096                  
  R2                    1.0891                   
  A1                  108.36785                  
  R3                    1.24294                  
 
 NAtoms=      6 NQM=      6 NQMF=      0 NMic=      0 NMicF=      0 NTot=      6.
                    Isotopes and Nuclear Properties:
 (Nuclear quadrupole moments (NQMom) in fm**2, nuclear magnetic moments (NMagM)
  in nuclear magnetons)

  Atom         1           2           3           4           5           6
 IAtWgt=          12           1           1           1           1           1
 AtmWgt=  12.0000000   1.0078250   1.0078250   1.0078250   1.0078250   1.0078250
 NucSpn=           0           1           1           1           1           1
 AtZEff=   0.0000000   0.0000000   0.0000000   0.0000000   0.0000000   0.0000000
 NQMom=    0.0000000   0.0000000   0.0000000   0.0000000   0.0000000   0.0000000
 NMagM=    0.0000000   2.7928460   2.7928460   2.7928460   2.7928460   2.7928460
 Leave Link  101 at Wed Nov  3 01:11:33 2010, MaxMem=  786432000 cpu:       1.0
 (Enter /share/apps/G09A02/g09/l202.exe)
                          Input orientation:                          
 ---------------------------------------------------------------------
 Center     Atomic      Atomic             Coordinates (Angstroms)
 Number     Number       Type             X           Y           Z
 ---------------------------------------------------------------------
      1          6           0        0.000000    0.000000    0.000000
      2          1           0        0.000000    0.000000    1.130956
      3          1           0        1.033610    0.000000   -0.343192
      4          1           0       -0.516805   -0.895133   -0.343192
      5          1           0       -0.516805    0.895133   -0.343192
      6          1           0        0.000000    0.000000    2.373900
 ---------------------------------------------------------------------
                    Distance matrix (angstroms):
                    1          2          3          4          5
     1  C    0.000000
     2  H    1.130956   0.000000
     3  H    1.089097   1.800407   0.000000
     4  H    1.089097   1.800407   1.790266   0.000000
     5  H    1.089097   1.800407   1.790266   1.790266   0.000000
     6  H    2.373900   1.242944   2.907050   2.907050   2.907050
                    6
     6  H    0.000000
 Symmetry turned off by external request.
 Stoichiometry    CH5(2)
 Framework group  C3V[C3(HHC),3SGV(H)]
 Deg. of freedom     4
 Full point group                 C3V     NOp   6
 Rotational constants (GHZ):    156.4577211     58.9397099     58.9397099
 Leave Link  202 at Wed Nov  3 01:11:33 2010, MaxMem=  786432000 cpu:       0.0
 (Enter /share/apps/G09A02/g09/l301.exe)
 Standard basis: 6-311+G(3df,2p) (5D, 7F)
 Ernie: Thresh=  0.10000D-02 Tol=  0.10000D-05 Strict=F.
 Integral buffers will be    131072 words long.
 Raffenetti 2 integral format.
 Two-electron integral symmetry is turned off.
    84 basis functions,   113 primitive gaussians,    90 cartesian basis functions
     6 alpha electrons        5 beta electrons
       nuclear repulsion energy        15.6312201373 Hartrees.
 IExCor=10402 DFT=T Ex=LC-B+HF Corr=LYP ExCW=0 ScaHFX=  1.000000
 ScaDFX=  1.000000  1.000000  1.000000  1.000000 ScalE2=  1.000000  1.000000
 IRadAn=      0 IRanWt=     -1 IRanGd=            0 ICorTp=0
  HFx wShort=  0.000000 wLong=  0.470000 cFull=  0.000000 cShort=  0.000000 cLong=  1.000000
  DFx wShort=  0.000000 wLong=  0.470000 cFull=  0.000000 cShort=  0.000000 cLong=  1.000000
 NAtoms=    6 NActive=    6 NUniq=    6 SFac= 7.50D-01 NAtFMM=   80 NAOKFM=F Big=F
 Leave Link  301 at Wed Nov  3 01:11:34 2010, MaxMem=  786432000 cpu:       0.7
 (Enter /share/apps/G09A02/g09/l302.exe)
 NPDir=0 NMtPBC=     1 NCelOv=     1 NCel=       1 NClECP=     1 NCelD=      1
         NCelK=      1 NCelE2=     1 NClLst=     1 CellRange=     0.0.
 One-electron integrals computed using PRISM.
 NBasis=    84 RedAO= T  NBF=    84
 NBsUse=    84 1.00D-06 NBFU=    84
 Precomputing XC quadrature grid using
 IXCGrd= 2 IRadAn=           0 IRanWt=          -1 IRanGd=           0 AccXCQ= 1.00D-10.
 NRdTot=     383 NPtTot=       48740 NUsed=       51512 NTot=       51544
 NSgBfM=    90    90    90    90    90 NAtAll=     6     6.
 Leave Link  302 at Wed Nov  3 01:11:34 2010, MaxMem=  786432000 cpu:       2.5
 (Enter /share/apps/G09A02/g09/l303.exe)
 DipDrv:  MaxL=1.
 Leave Link  303 at Wed Nov  3 01:11:34 2010, MaxMem=  786432000 cpu:       0.4
 (Enter /share/apps/G09A02/g09/l401.exe)
 Harris functional with IExCor=10402 diagonalized for initial guess.
 ExpMin= 4.38D-02 ExpMax= 4.56D+03 ExpMxC= 6.82D+02 IAcc=2 IRadAn=         0 AccDes= 0.00D+00
 HarFok:  IExCor=10402 AccDes= 0.00D+00 IRadAn=         0 IDoV= 1
 ScaDFX=  1.000000  1.000000  1.000000  1.000000
 FoFCou: FMM=F IPFlag=           0 FMFlag=      100000 FMFlg1=           0
         NFxFlg=           0 DoJE=T BraDBF=F KetDBF=T FulRan=T
         Omega=  0.000000  0.000000  1.000000  0.000000  0.000000 ICntrl=     500 IOpCl=  0
         NMat0=    1 NMatS0=    1 NMatT0=    0 NMatD0=    1 NMtDS0=    0 NMtDT0=    0
         I1Cent=           4 NGrid=           0.
 Symmetry not used in FoFCou.
 Harris En= -38.5508544843302    
 Initial guess <Sx>= 0.0000 <Sy>= 0.0000 <Sz>= 0.5000 <S**2>= 0.7500 S= 0.5000
 Leave Link  401 at Wed Nov  3 01:11:34 2010, MaxMem=  786432000 cpu:       3.7
 (Enter /share/apps/G09A02/g09/l502.exe)
 UHF open shell SCF:
 Requested convergence on RMS density matrix=1.00D-08 within 128 cycles.
 Requested convergence on MAX density matrix=1.00D-06.
 Requested convergence on             energy=1.00D-06.
 No special actions if energy rises.
 Using DIIS extrapolation, IDIIS=  1040.
 Two-electron integral symmetry not used.
        51445 words used for storage of precomputed grid.
 IEnd=       95163 IEndB=       95163 NGot=   786432000 MDV=   786361668
 LenX=   786361668 LenY=   786353127
 Fock matrices will be formed incrementally for  20 cycles.

 Cycle   1  Pass 1  IDiag  1:
 FoFJK:  IHMeth= 1 ICntrl=     0 DoSepK=T KAlg= 1 I1Cent= 0 FoldK=F
 FoFCou: FMM=F IPFlag=           0 FMFlag=      100000 FMFlg1=           0
         NFxFlg=           0 DoJE=T BraDBF=F KetDBF=F FulRan=T
         Omega=  0.000000  0.000000  1.000000  0.000000  0.000000 ICntrl=     500 IOpCl=  0
         NMat0=    1 NMatS0=    1 NMatT0=    0 NMatD0=    1 NMtDS0=    0 NMtDT0=    0
         I1Cent=           0 NGrid=           0.
 Symmetry not used in FoFCou.
 E= -40.8003548116175    
 DIIS: error= 2.83D-02 at cycle   1 NSaved=   1.
 NSaved= 1 IEnMin= 1 EnMin= -40.8003548116175     IErMin= 1 ErrMin= 2.83D-02
 ErrMax= 2.83D-02 EMaxC= 1.00D-01 BMatC= 2.29D-01 BMatP= 2.29D-01
 IDIUse=3 WtCom= 7.17D-01 WtEn= 2.83D-01
 Coeff-Com:  0.100D+01
 Coeff-En:   0.100D+01
 Coeff:      0.100D+01
 Gap=     0.444 Goal=   None    Shift=    0.000
 Gap=     0.417 Goal=   None    Shift=    0.000
 GapD=    0.417 DampG=2.000 DampE=0.500 DampFc=1.0000 IDamp=-1.
 RMSDP=6.49D-03 MaxDP=2.25D-01              OVMax= 1.61D-01

 Cycle   2  Pass 1  IDiag  1:
 RMSU=  4.54D-03    CP:  7.19D-01
 FoFJK:  IHMeth= 1 ICntrl=     0 DoSepK=T KAlg= 1 I1Cent= 0 FoldK=F
 E= -40.8468486302099     Delta-E=       -0.046493818592 Rises=F Damp=F
 DIIS: error= 2.31D-02 at cycle   2 NSaved=   2.
 NSaved= 2 IEnMin= 2 EnMin= -40.8468486302099     IErMin= 2 ErrMin= 2.31D-02
 ErrMax= 2.31D-02 EMaxC= 1.00D-01 BMatC= 1.01D-01 BMatP= 2.29D-01
 IDIUse=3 WtCom= 7.69D-01 WtEn= 2.31D-01
 Coeff-Com:  0.391D+00 0.609D+00
 Coeff-En:   0.578D-01 0.942D+00
 Coeff:      0.314D+00 0.686D+00
 Gap=     0.463 Goal=   None    Shift=    0.000
 Gap=     0.528 Goal=   None    Shift=    0.000
 RMSDP=2.06D-03 MaxDP=6.79D-02 DE=-4.65D-02 OVMax= 6.88D-02

 Cycle   3  Pass 1  IDiag  1:
 RMSU=  1.59D-03    CP:  6.74D-01  1.12D+00
 FoFJK:  IHMeth= 1 ICntrl=     0 DoSepK=T KAlg= 1 I1Cent= 0 FoldK=F
 E= -40.8720042307638     Delta-E=       -0.025155600554 Rises=F Damp=F
 DIIS: error= 4.12D-03 at cycle   3 NSaved=   3.
 NSaved= 3 IEnMin= 3 EnMin= -40.8720042307638     IErMin= 3 ErrMin= 4.12D-03
 ErrMax= 4.12D-03 EMaxC= 1.00D-01 BMatC= 4.15D-03 BMatP= 1.01D-01
 IDIUse=3 WtCom= 9.59D-01 WtEn= 4.12D-02
 Coeff-Com: -0.987D-01 0.479D-01 0.105D+01
 Coeff-En:   0.000D+00 0.000D+00 0.100D+01
 Coeff:     -0.946D-01 0.459D-01 0.105D+01
 Gap=     0.447 Goal=   None    Shift=    0.000
 Gap=     0.529 Goal=   None    Shift=    0.000
 RMSDP=9.86D-04 MaxDP=3.56D-02 DE=-2.52D-02 OVMax= 3.16D-02

 Cycle   4  Pass 1  IDiag  1:
 RMSU=  4.36D-04    CP:  6.34D-01  1.22D+00  1.18D+00
 FoFJK:  IHMeth= 1 ICntrl=     0 DoSepK=T KAlg= 1 I1Cent= 0 FoldK=F
 E= -40.8736759702673     Delta-E=       -0.001671739503 Rises=F Damp=F
 DIIS: error= 9.56D-04 at cycle   4 NSaved=   4.
 NSaved= 4 IEnMin= 4 EnMin= -40.8736759702673     IErMin= 4 ErrMin= 9.56D-04
 ErrMax= 9.56D-04 EMaxC= 1.00D-01 BMatC= 1.14D-04 BMatP= 4.15D-03
 IDIUse=3 WtCom= 9.90D-01 WtEn= 9.56D-03
 Coeff-Com: -0.833D-02-0.424D-01-0.201D+00 0.125D+01
 Coeff-En:   0.000D+00 0.000D+00 0.000D+00 0.100D+01
 Coeff:     -0.825D-02-0.420D-01-0.199D+00 0.125D+01
 Gap=     0.450 Goal=   None    Shift=    0.000
 Gap=     0.530 Goal=   None    Shift=    0.000
 RMSDP=3.14D-04 MaxDP=1.11D-02 DE=-1.67D-03 OVMax= 1.22D-02

 Cycle   5  Pass 1  IDiag  1:
 RMSU=  4.18D-05    CP:  6.23D-01  1.25D+00  1.26D+00  1.36D+00
 FoFJK:  IHMeth= 1 ICntrl=     0 DoSepK=T KAlg= 1 I1Cent= 0 FoldK=F
 E= -40.8738100103437     Delta-E=       -0.000134040076 Rises=F Damp=F
 DIIS: error= 4.94D-04 at cycle   5 NSaved=   5.
 NSaved= 5 IEnMin= 5 EnMin= -40.8738100103437     IErMin= 5 ErrMin= 4.94D-04
 ErrMax= 4.94D-04 EMaxC= 1.00D-01 BMatC= 9.20D-06 BMatP= 1.14D-04
 IDIUse=3 WtCom= 9.95D-01 WtEn= 4.94D-03
 Coeff-Com:  0.662D-02 0.993D-02 0.115D-01-0.361D+00 0.133D+01
 Coeff-En:   0.000D+00 0.000D+00 0.000D+00 0.000D+00 0.100D+01
 Coeff:      0.659D-02 0.988D-02 0.115D-01-0.359D+00 0.133D+01
 Gap=     0.451 Goal=   None    Shift=    0.000
 Gap=     0.528 Goal=   None    Shift=    0.000
 RMSDP=3.65D-05 MaxDP=1.47D-03 DE=-1.34D-04 OVMax= 3.68D-03

 Cycle   6  Pass 1  IDiag  1:
 RMSU=  1.12D-05    CP:  6.22D-01  1.25D+00  1.26D+00  1.39D+00  1.61D+00
 FoFJK:  IHMeth= 1 ICntrl=     0 DoSepK=T KAlg= 1 I1Cent= 0 FoldK=F
 E= -40.8738213064573     Delta-E=       -0.000011296114 Rises=F Damp=F
 DIIS: error= 1.48D-04 at cycle   6 NSaved=   6.
 NSaved= 6 IEnMin= 6 EnMin= -40.8738213064573     IErMin= 6 ErrMin= 1.48D-04
 ErrMax= 1.48D-04 EMaxC= 1.00D-01 BMatC= 9.58D-07 BMatP= 9.20D-06
 IDIUse=3 WtCom= 9.99D-01 WtEn= 1.48D-03
 Coeff-Com:  0.551D-04 0.340D-02 0.163D-01-0.756D-01-0.141D+00 0.120D+01
 Coeff-En:   0.000D+00 0.000D+00 0.000D+00 0.000D+00 0.000D+00 0.100D+01
 Coeff:      0.550D-04 0.339D-02 0.163D-01-0.755D-01-0.140D+00 0.120D+01
 Gap=     0.451 Goal=   None    Shift=    0.000
 Gap=     0.528 Goal=   None    Shift=    0.000
 RMSDP=1.25D-05 MaxDP=3.68D-04 DE=-1.13D-05 OVMax= 1.21D-03

 Cycle   7  Pass 1  IDiag  1:
 RMSU=  3.35D-06    CP:  6.22D-01  1.25D+00  1.25D+00  1.39D+00  1.78D+00
                    CP:  1.38D+00
 FoFJK:  IHMeth= 1 ICntrl=     0 DoSepK=T KAlg= 1 I1Cent= 0 FoldK=F
 E= -40.8738224027647     Delta-E=       -0.000001096307 Rises=F Damp=F
 DIIS: error= 5.22D-05 at cycle   7 NSaved=   7.
 NSaved= 7 IEnMin= 7 EnMin= -40.8738224027647     IErMin= 7 ErrMin= 5.22D-05
 ErrMax= 5.22D-05 EMaxC= 1.00D-01 BMatC= 1.08D-07 BMatP= 9.58D-07
 IDIUse=1 WtCom= 1.00D+00 WtEn= 0.00D+00
 Coeff-Com: -0.700D-03-0.127D-02-0.373D-02 0.457D-01-0.824D-01-0.289D+00
 Coeff-Com:  0.133D+01
 Coeff:     -0.700D-03-0.127D-02-0.373D-02 0.457D-01-0.824D-01-0.289D+00
 Coeff:      0.133D+01
 Gap=     0.451 Goal=   None    Shift=    0.000
 Gap=     0.528 Goal=   None    Shift=    0.000
 RMSDP=4.65D-06 MaxDP=1.08D-04 DE=-1.10D-06 OVMax= 3.90D-04

 Cycle   8  Pass 1  IDiag  1:
 RMSU=  1.02D-06    CP:  6.22D-01  1.25D+00  1.25D+00  1.39D+00  1.82D+00
                    CP:  1.52D+00  1.62D+00
 FoFJK:  IHMeth= 1 ICntrl=     0 DoSepK=T KAlg= 1 I1Cent= 0 FoldK=F
 E= -40.8738225160909     Delta-E=       -0.000000113326 Rises=F Damp=F
 DIIS: error= 1.29D-05 at cycle   8 NSaved=   8.
 NSaved= 8 IEnMin= 8 EnMin= -40.8738225160909     IErMin= 8 ErrMin= 1.29D-05
 ErrMax= 1.29D-05 EMaxC= 1.00D-01 BMatC= 8.63D-09 BMatP= 1.08D-07
 IDIUse=1 WtCom= 1.00D+00 WtEn= 0.00D+00
 Coeff-Com:  0.223D-03 0.199D-03 0.464D-03-0.110D-01 0.417D-01 0.221D-01
 Coeff-Com: -0.544D+00 0.149D+01
 Coeff:      0.223D-03 0.199D-03 0.464D-03-0.110D-01 0.417D-01 0.221D-01
 Coeff:     -0.544D+00 0.149D+01
 Gap=     0.451 Goal=   None    Shift=    0.000
 Gap=     0.528 Goal=   None    Shift=    0.000
 RMSDP=1.47D-06 MaxDP=3.22D-05 DE=-1.13D-07 OVMax= 1.01D-04

 Cycle   9  Pass 1  IDiag  1:
 RMSU=  3.45D-07    CP:  6.22D-01  1.25D+00  1.25D+00  1.39D+00  1.83D+00
                    CP:  1.55D+00  1.80D+00  1.69D+00
 FoFJK:  IHMeth= 1 ICntrl=     0 DoSepK=T KAlg= 1 I1Cent= 0 FoldK=F
 E= -40.8738225251526     Delta-E=       -0.000000009062 Rises=F Damp=F
 DIIS: error= 2.47D-06 at cycle   9 NSaved=   9.
 NSaved= 9 IEnMin= 9 EnMin= -40.8738225251526     IErMin= 9 ErrMin= 2.47D-06
 ErrMax= 2.47D-06 EMaxC= 1.00D-01 BMatC= 3.20D-10 BMatP= 8.63D-09
 IDIUse=1 WtCom= 1.00D+00 WtEn= 0.00D+00
 Coeff-Com: -0.383D-04-0.234D-04-0.100D-03 0.187D-02-0.942D-02 0.395D-02
 Coeff-Com:  0.109D+00-0.459D+00 0.135D+01
 Coeff:     -0.383D-04-0.234D-04-0.100D-03 0.187D-02-0.942D-02 0.395D-02
 Coeff:      0.109D+00-0.459D+00 0.135D+01
 Gap=     0.451 Goal=   None    Shift=    0.000
 Gap=     0.528 Goal=   None    Shift=    0.000
 RMSDP=3.42D-07 MaxDP=9.96D-06 DE=-9.06D-09 OVMax= 1.79D-05

 Cycle  10  Pass 1  IDiag  1:
 RMSU=  7.46D-08    CP:  6.23D-01  1.25D+00  1.25D+00  1.39D+00  1.83D+00
                    CP:  1.55D+00  1.80D+00  1.83D+00  1.44D+00
 FoFJK:  IHMeth= 1 ICntrl=     0 DoSepK=T KAlg= 1 I1Cent= 0 FoldK=F
 E= -40.8738225254881     Delta-E=       -0.000000000336 Rises=F Damp=F
 DIIS: error= 4.22D-07 at cycle  10 NSaved=  10.
 NSaved=10 IEnMin=10 EnMin= -40.8738225254881     IErMin=10 ErrMin= 4.22D-07
 ErrMax= 4.22D-07 EMaxC= 1.00D-01 BMatC= 2.31D-11 BMatP= 3.20D-10
 IDIUse=1 WtCom= 1.00D+00 WtEn= 0.00D+00
 Coeff-Com:  0.227D-05 0.336D-05 0.351D-04-0.184D-03 0.108D-02-0.258D-02
 Coeff-Com: -0.360D-02 0.492D-01-0.369D+00 0.133D+01
 Coeff:      0.227D-05 0.336D-05 0.351D-04-0.184D-03 0.108D-02-0.258D-02
 Coeff:     -0.360D-02 0.492D-01-0.369D+00 0.133D+01
 Gap=     0.451 Goal=   None    Shift=    0.000
 Gap=     0.528 Goal=   None    Shift=    0.000
 RMSDP=8.63D-08 MaxDP=2.94D-06 DE=-3.36D-10 OVMax= 3.53D-06

 Cycle  11  Pass 1  IDiag  1:
 RMSU=  1.34D-08    CP:  6.23D-01  1.25D+00  1.25D+00  1.39D+00  1.83D+00
                    CP:  1.55D+00  1.80D+00  1.85D+00  1.52D+00  1.48D+00
 FoFJK:  IHMeth= 1 ICntrl=     0 DoSepK=T KAlg= 1 I1Cent= 0 FoldK=F
 E= -40.8738225255152     Delta-E=       -0.000000000027 Rises=F Damp=F
 DIIS: error= 1.34D-07 at cycle  11 NSaved=  11.
 NSaved=11 IEnMin=11 EnMin= -40.8738225255152     IErMin=11 ErrMin= 1.34D-07
 ErrMax= 1.34D-07 EMaxC= 1.00D-01 BMatC= 2.90D-12 BMatP= 2.31D-11
 IDIUse=1 WtCom= 1.00D+00 WtEn= 0.00D+00
 Coeff-Com:  0.946D-06-0.203D-06-0.920D-05-0.293D-04 0.163D-03 0.105D-02
 Coeff-Com: -0.772D-02 0.188D-01 0.323D-01-0.571D+00 0.153D+01
 Coeff:      0.946D-06-0.203D-06-0.920D-05-0.293D-04 0.163D-03 0.105D-02
 Coeff:     -0.772D-02 0.188D-01 0.323D-01-0.571D+00 0.153D+01
 Gap=     0.451 Goal=   None    Shift=    0.000
 Gap=     0.528 Goal=   None    Shift=    0.000
 RMSDP=2.38D-08 MaxDP=3.71D-07 DE=-2.71D-11 OVMax= 1.00D-06

 Cycle  12  Pass 1  IDiag  1:
 RMSU=  5.46D-09    CP:  6.23D-01  1.25D+00  1.25D+00  1.39D+00  1.83D+00
                    CP:  1.55D+00  1.80D+00  1.85D+00  1.52D+00  1.65D+00
                    CP:  1.72D+00
 FoFJK:  IHMeth= 1 ICntrl=     0 DoSepK=T KAlg= 1 I1Cent= 0 FoldK=F
 E= -40.8738225255182     Delta-E=       -0.000000000003 Rises=F Damp=F
 DIIS: error= 2.88D-08 at cycle  12 NSaved=  12.
 NSaved=12 IEnMin=12 EnMin= -40.8738225255182     IErMin=12 ErrMin= 2.88D-08
 ErrMax= 2.88D-08 EMaxC= 1.00D-01 BMatC= 1.48D-13 BMatP= 2.90D-12
 IDIUse=1 WtCom= 1.00D+00 WtEn= 0.00D+00
 Coeff-Com: -0.305D-07 0.374D-06 0.179D-05-0.156D-06-0.493D-04-0.171D-03
 Coeff-Com:  0.218D-02-0.787D-02 0.142D-01 0.931D-01-0.530D+00 0.143D+01
 Coeff:     -0.305D-07 0.374D-06 0.179D-05-0.156D-06-0.493D-04-0.171D-03
 Coeff:      0.218D-02-0.787D-02 0.142D-01 0.931D-01-0.530D+00 0.143D+01
 Gap=     0.451 Goal=   None    Shift=    0.000
 Gap=     0.528 Goal=   None    Shift=    0.000
 RMSDP=7.40D-09 MaxDP=2.12D-07 DE=-3.03D-12 OVMax= 2.32D-07

 SCF Done:  E(ULC-B+HF-LYP) =  -40.8738225255     A.U. after   12 cycles
             Convg  =    0.7405D-08             -V/T =  2.0043
 <Sx>= 0.0000 <Sy>= 0.0000 <Sz>= 0.5000 <S**2>= 0.7548 S= 0.5024
 <L.S>= 0.000000000000E+00
 KE= 4.069733375935D+01 PE=-1.253361113480D+02 EE= 2.813373492579D+01
 Annihilation of the first spin contaminant:
 S**2 before annihilation     0.7548,   after     0.7500
 Leave Link  502 at Wed Nov  3 01:12:10 2010, MaxMem=  786432000 cpu:     281.8
 (Enter /share/apps/G09A02/g09/l601.exe)
 Copying SCF densities to generalized density rwf, IOpCl= 1 IROHF=0.

 **********************************************************************

            Population analysis using the SCF density.

 **********************************************************************

 Alpha  occ. eigenvalues --  -10.12537  -0.87285  -0.58710  -0.53591  -0.53591
 Alpha  occ. eigenvalues --   -0.38342
 Alpha virt. eigenvalues --    0.06745   0.09279   0.09279   0.10507   0.22113
 Alpha virt. eigenvalues --    0.22113   0.25014   0.28859   0.35108   0.35108
 Alpha virt. eigenvalues --    0.39010   0.41187   0.41187   0.46101   0.62722
 Alpha virt. eigenvalues --    0.62722   0.66829   0.71231   0.72697   0.72697
 Alpha virt. eigenvalues --    0.78336   0.80349   0.80349   0.90003   0.98170
 Alpha virt. eigenvalues --    1.06257   1.06257   1.10059   1.10059   1.15108
 Alpha virt. eigenvalues --    1.26832   1.26832   1.33105   1.40771   1.40771
 Alpha virt. eigenvalues --    1.56868   1.91682   2.06901   2.06901   2.07216
 Alpha virt. eigenvalues --    2.07216   2.18022   2.47141   2.68989   2.78102
 Alpha virt. eigenvalues --    2.78102   2.94691   3.07959   3.11244   3.11244
 Alpha virt. eigenvalues --    3.43985   3.43985   3.46696   3.64824   3.64824
 Alpha virt. eigenvalues --    3.73614   3.87138   3.87138   4.04301   4.12072
 Alpha virt. eigenvalues --    4.28614   4.28614   4.34104   4.34104   4.43079
 Alpha virt. eigenvalues --    4.54356   4.54356   4.61236   5.16267   5.77154
 Alpha virt. eigenvalues --    5.86762   5.86762   7.29074   7.29074   7.88305
 Alpha virt. eigenvalues --    7.88305   7.97157  24.26043
  Beta  occ. eigenvalues --  -10.12120  -0.86114  -0.53506  -0.53314  -0.53314
  Beta virt. eigenvalues --   -0.00526   0.07399   0.09184   0.09184   0.10897
  Beta virt. eigenvalues --    0.22252   0.22252   0.25569   0.29614   0.35323
  Beta virt. eigenvalues --    0.35323   0.40092   0.41159   0.41159   0.50370
  Beta virt. eigenvalues --    0.63476   0.63476   0.69339   0.71436   0.75429
  Beta virt. eigenvalues --    0.75429   0.78352   0.80763   0.80763   0.90391
  Beta virt. eigenvalues --    0.98162   1.06839   1.06839   1.10448   1.10448
  Beta virt. eigenvalues --    1.18311   1.26989   1.26990   1.33472   1.41060
  Beta virt. eigenvalues --    1.41060   1.57592   1.93512   2.07303   2.07303
  Beta virt. eigenvalues --    2.08088   2.08088   2.19722   2.53464   2.74302
  Beta virt. eigenvalues --    2.78507   2.78507   2.99942   3.08131   3.12099
  Beta virt. eigenvalues --    3.12099   3.44477   3.44477   3.47216   3.65124
  Beta virt. eigenvalues --    3.65124   3.75521   4.00582   4.00582   4.04693
  Beta virt. eigenvalues --    4.18821   4.28449   4.28449   4.34127   4.34127
  Beta virt. eigenvalues --    4.47861   4.54500   4.54500   4.61361   5.16639
  Beta virt. eigenvalues --    5.78039   5.86983   5.86983   7.30335   7.30335
  Beta virt. eigenvalues --    7.89044   7.89044   7.98872  24.26608
          Condensed to atoms (all electrons):
              1          2          3          4          5          6
     1  C    5.150502   0.374140   0.403560   0.403560   0.403560  -0.040178
     2  H    0.374140   0.482813  -0.014939  -0.014940  -0.014940  -0.030546
     3  H    0.403560  -0.014939   0.473155  -0.017348  -0.017348   0.001281
     4  H    0.403560  -0.014940  -0.017348   0.473152  -0.017347   0.001281
     5  H    0.403560  -0.014940  -0.017348  -0.017347   0.473152   0.001281
     6  H   -0.040178  -0.030546   0.001281   0.001281   0.001281   1.105074
 Mulliken atomic charges:
              1
     1  C   -0.695144
     2  H    0.218413
     3  H    0.171639
     4  H    0.171643
     5  H    0.171643
     6  H   -0.038193
 Sum of Mulliken atomic charges =   0.00000
 Mulliken charges with hydrogens summed into heavy atoms:
              1
     1  C    0.000000
 Sum of Mulliken charges with hydrogens summed into heavy atoms =   0.00000
          Atomic-Atomic Spin Densities.
              1          2          3          4          5          6
     1  C    0.249894   0.039277  -0.001283  -0.001284  -0.001284  -0.069734
     2  H    0.039277  -0.055864   0.000653   0.000653   0.000653  -0.097376
     3  H   -0.001283   0.000653  -0.004607   0.000413   0.000413   0.002515
     4  H   -0.001284   0.000653   0.000413  -0.004606   0.000413   0.002515
     5  H   -0.001284   0.000653   0.000413   0.000413  -0.004606   0.002515
     6  H   -0.069734  -0.097376   0.002515   0.002515   0.002515   1.061674
 Mulliken atomic spin densities:
              1
     1  C    0.215584
     2  H   -0.112004
     3  H   -0.001896
     4  H   -0.001896
     5  H   -0.001896
     6  H    0.902108
 Sum of Mulliken atomic spin densities =   1.00000
 Electronic spatial extent (au):  <R**2>=             60.4895
 Charge=              0.0000 electrons
 Dipole moment (field-independent basis, Debye):
    X=              0.0000    Y=              0.0000    Z=             -0.4775  Tot=              0.4775
 Quadrupole moment (field-independent basis, Debye-Ang):
   XX=             -9.7846   YY=             -9.7846   ZZ=            -11.4880
   XY=              0.0000   XZ=              0.0000   YZ=              0.0000
 Traceless Quadrupole moment (field-independent basis, Debye-Ang):
   XX=              0.5678   YY=              0.5678   ZZ=             -1.1356
   XY=              0.0000   XZ=              0.0000   YZ=              0.0000
 Octapole moment (field-independent basis, Debye-Ang**2):
  XXX=              0.7124  YYY=              0.0000  ZZZ=            -14.0717  XYY=             -0.7124
  XXY=              0.0000  XXZ=             -3.9798  XZZ=              0.0000  YZZ=              0.0000
  YYZ=             -3.9798  XYZ=              0.0000
 Hexadecapole moment (field-independent basis, Debye-Ang**3):
 XXXX=            -18.1614 YYYY=            -18.1614 ZZZZ=            -80.7963 XXXY=              0.0000
 XXXZ=             -0.4192 YYYX=              0.0000 YYYZ=              0.0000 ZZZX=              0.0000
 ZZZY=              0.0000 XXYY=             -6.0538 XXZZ=            -14.9296 YYZZ=            -14.9296
 XXYZ=              0.0000 YYXZ=              0.4192 ZZXY=              0.0000
 N-N= 1.563122013730D+01 E-N=-1.859796772347D+02  KE= 6.064096604848D+01
                          Isotropic Fermi Contact Couplings
        Atom                 a.u.       MegaHertz       Gauss      10(-4) cm-1
     1  C(13)              0.10721     120.52860      43.00760      40.20401
     2  H(1)              -0.01488     -66.51287     -23.73344     -22.18630
     3  H(1)              -0.00189      -8.46675      -3.02115      -2.82420
     4  H(1)              -0.00189      -8.46675      -3.02115      -2.82420
     5  H(1)              -0.00189      -8.46675      -3.02115      -2.82420
     6  H(1)               0.26945    1204.40243     429.76072     401.74541
 --------------------------------------------------------
       Center         ----  Spin Dipole Couplings  ----
                      3XX-RR        3YY-RR        3ZZ-RR
 --------------------------------------------------------
     1   Atom       -0.148146     -0.148146      0.296292
     2   Atom       -0.086929     -0.086929      0.173858
     3   Atom        0.011990     -0.019301      0.007311
     4   Atom       -0.011478      0.004167      0.007311
     5   Atom       -0.011478      0.004167      0.007311
     6   Atom        0.005471      0.005471     -0.010941
 --------------------------------------------------------
                        XY            XZ            YZ
 --------------------------------------------------------
     1   Atom        0.000000      0.000000      0.000000
     2   Atom        0.000000      0.000000      0.000000
     3   Atom        0.000000     -0.012203      0.000000
     4   Atom        0.013550      0.006101      0.010568
     5   Atom       -0.013550      0.006101     -0.010568
     6   Atom        0.000000      0.000000      0.000000
 --------------------------------------------------------


 ---------------------------------------------------------------------------------
              Anisotropic Spin Dipole Couplings in Principal Axis System
 ---------------------------------------------------------------------------------

       Atom             a.u.   MegaHertz   Gauss  10(-4) cm-1        Axes

              Baa    -0.1481   -19.880    -7.094    -6.631  0.0000  1.0000  0.0000
     1 C(13)  Bbb    -0.1481   -19.880    -7.094    -6.631  1.0000  0.0000  0.0000
              Bcc     0.2963    39.760    14.187    13.262  0.0000  0.0000  1.0000
 
              Baa    -0.0869   -46.381   -16.550   -15.471  1.0000  0.0000  0.0000
     2 H(1)   Bbb    -0.0869   -46.381   -16.550   -15.471  0.0000  1.0000  0.0000
              Bcc     0.1739    92.762    33.100    30.942  0.0000  0.0000  1.0000
 
              Baa    -0.0193   -10.298    -3.675    -3.435  0.0000  1.0000  0.0000
     3 H(1)   Bbb    -0.0028    -1.480    -0.528    -0.494  0.6371  0.0000  0.7708
              Bcc     0.0221    11.779     4.203     3.929  0.7708  0.0000 -0.6371
 
              Baa    -0.0193   -10.298    -3.675    -3.435  0.8660 -0.5000  0.0000
     4 H(1)   Bbb    -0.0028    -1.480    -0.528    -0.494 -0.3185 -0.5517  0.7708
              Bcc     0.0221    11.779     4.203     3.929  0.3854  0.6675  0.6371
 
              Baa    -0.0193   -10.298    -3.675    -3.435  0.8660  0.5000  0.0000
     5 H(1)   Bbb    -0.0028    -1.480    -0.528    -0.494 -0.3185  0.5517  0.7708
              Bcc     0.0221    11.779     4.203     3.929 -0.3854  0.6675 -0.6371
 
              Baa    -0.0109    -5.838    -2.083    -1.947  0.0000  0.0000  1.0000
     6 H(1)   Bbb     0.0055     2.919     1.042     0.974  1.0000  0.0000  0.0000
              Bcc     0.0055     2.919     1.042     0.974  0.0000  1.0000  0.0000
 

 ---------------------------------------------------------------------------------

 No NMR shielding tensors so no spin-rotation constants.
 Leave Link  601 at Wed Nov  3 01:12:10 2010, MaxMem=  786432000 cpu:       4.2
 (Enter /share/apps/G09A02/g09/l9999.exe)
 1\1\GINC-COMPUTE-0-7\SP\ULC-BLYP\6-311+G(3df,2p)\C1H5(2)\WENXINZY\03-N
 ov-2010\0\\#p lc-blyp/6-311+g(3df,2p) nosymm scf=tight\\8 H_CH4\\0,2\C
 \H,1,1.130956\H,1,1.0890967,2,108.3678502\H,1,1.0890967,2,108.3678502,
 3,120.,0\H,1,1.0890967,2,108.3678502,3,-120.,0\H,2,1.2429439,1,180.,3,
 0.,0\\Version=EM64L-G09RevA.02\HF=-40.8738225\S2=0.754786\S2-1=0.\S2A=
 0.750002\RMSD=7.405e-09\Dipole=0.0000012,0.,-0.1878797\Quadrupole=0.42
 21596,0.4221619,-0.8443216,0.,0.0000008,0.\PG=C03V [C3(H1H1C1),3SGV(H1
 )]\\@


 IT IS BY LOGIC THAT WE PROVE, BUT BY INTUITION THAT WE DISCOVER.
     -- J.H.POINCARE (1854-1912)
 Job cpu time:  0 days  0 hours  4 minutes 55.9 seconds.
 File lengths (MBytes):  RWF=      9 Int=      0 D2E=      0 Chk=      1 Scr=      1
 Normal termination of Gaussian 09 at Wed Nov  3 01:12:10 2010.
