 Entering Gaussian System, Link 0=/share/apps/G09A02/g09/g09
 Input=./.script12553/Job_H2_CH3_34.com
 Output=./.script12553/Job_H2_CH3_34.log
 Initial command:
 /share/apps/G09A02/g09/l1.exe /state/partition1/wenxinzy/scratch/Gau-21024.inp -scrdir=/state/partition1/wenxinzy/scratch/
 Default is to use a total of   8 processors:
                                8 via shared-memory
                                1 via Linda
 Entering Link 1 = /share/apps/G09A02/g09/l1.exe PID=     21025.
  
 Copyright (c) 1988,1990,1992,1993,1995,1998,2003,2009, Gaussian, Inc.
                  All Rights Reserved.
  
 This is part of the Gaussian(R) 09 program.  It is based on
 the Gaussian(R) 03 system (copyright 2003, Gaussian, Inc.),
 the Gaussian(R) 98 system (copyright 1998, Gaussian, Inc.),
 the Gaussian(R) 94 system (copyright 1995, Gaussian, Inc.),
 the Gaussian 92(TM) system (copyright 1992, Gaussian, Inc.),
 the Gaussian 90(TM) system (copyright 1990, Gaussian, Inc.),
 the Gaussian 88(TM) system (copyright 1988, Gaussian, Inc.),
 the Gaussian 86(TM) system (copyright 1986, Carnegie Mellon
 University), and the Gaussian 82(TM) system (copyright 1983,
 Carnegie Mellon University). Gaussian is a federally registered
 trademark of Gaussian, Inc.
  
 This software contains proprietary and confidential information,
 including trade secrets, belonging to Gaussian, Inc.
  
 This software is provided under written license and may be
 used, copied, transmitted, or stored only in accord with that
 written license.
  
 The following legend is applicable only to US Government
 contracts under FAR:
  
                    RESTRICTED RIGHTS LEGEND
  
 Use, reproduction and disclosure by the US Government is
 subject to restrictions as set forth in subparagraphs (a)
 and (c) of the Commercial Computer Software - Restricted
 Rights clause in FAR 52.227-19.
  
 Gaussian, Inc.
 340 Quinnipiac St., Bldg. 40, Wallingford CT 06492
  
  
 ---------------------------------------------------------------
 Warning -- This program may not be used in any manner that
 competes with the business of Gaussian, Inc. or will provide
 assistance to any competitor of Gaussian, Inc.  The licensee
 of this program is prohibited from giving any competitor of
 Gaussian, Inc. access to this program.  By using this program,
 the user acknowledges that Gaussian, Inc. is engaged in the
 business of creating and licensing software in the field of
 computational chemistry and represents and warrants to the
 licensee that it is not a competitor of Gaussian, Inc. and that
 it will not use this program in any manner prohibited above.
 ---------------------------------------------------------------
  

 Cite this work as:
 Gaussian 09, Revision A.02,
 M. J. Frisch, G. W. Trucks, H. B. Schlegel, G. E. Scuseria, 
 M. A. Robb, J. R. Cheeseman, G. Scalmani, V. Barone, B. Mennucci, 
 G. A. Petersson, H. Nakatsuji, M. Caricato, X. Li, H. P. Hratchian, 
 A. F. Izmaylov, J. Bloino, G. Zheng, J. L. Sonnenberg, M. Hada, 
 M. Ehara, K. Toyota, R. Fukuda, J. Hasegawa, M. Ishida, T. Nakajima, 
 Y. Honda, O. Kitao, H. Nakai, T. Vreven, J. A. Montgomery, Jr., 
 J. E. Peralta, F. Ogliaro, M. Bearpark, J. J. Heyd, E. Brothers, 
 K. N. Kudin, V. N. Staroverov, R. Kobayashi, J. Normand, 
 K. Raghavachari, A. Rendell, J. C. Burant, S. S. Iyengar, J. Tomasi, 
 M. Cossi, N. Rega, J. M. Millam, M. Klene, J. E. Knox, J. B. Cross, 
 V. Bakken, C. Adamo, J. Jaramillo, R. Gomperts, R. E. Stratmann, 
 O. Yazyev, A. J. Austin, R. Cammi, C. Pomelli, J. W. Ochterski, 
 R. L. Martin, K. Morokuma, V. G. Zakrzewski, G. A. Voth, 
 P. Salvador, J. J. Dannenberg, S. Dapprich, A. D. Daniels, 
 O. Farkas, J. B. Foresman, J. V. Ortiz, J. Cioslowski, 
 and D. J. Fox, Gaussian, Inc., Wallingford CT, 2009.
 
 ******************************************
 Gaussian 09:  EM64L-G09RevA.02 11-Jun-2009
                 3-Nov-2010 
 ******************************************
 %chk=/state/partition1/wenxinzy/scratch/H2_CH3_34.chk
 %nproc=8
 Will use up to    8 processors via shared memory.
 %mem=6000mb
 -------------------------------------------
 #p lc-blyp/6-311+g(3df,2p) nosymm scf=tight
 -------------------------------------------
 1/38=1/1;
 2/12=2,15=1,17=6,18=5,40=1/2;
 3/5=4,6=6,7=216,11=2,16=1,25=1,30=1,74=1000402/1,2,3;
 4//1;
 5/5=2,32=2,38=5/2;
 6/7=2,8=2,9=2,10=2,28=1/1;
 99/5=1,9=1/99;
 Leave Link    1 at Wed Nov  3 01:55:19 2010, MaxMem=  786432000 cpu:       0.5
 (Enter /share/apps/G09A02/g09/l101.exe)
 ---------
 35 H2+CH3
 ---------
 Symbolic Z-matrix:
 Charge =  0 Multiplicity = 2
 C
 H1                   C    R1
 H2                   C    R2       H1   A1
 H3                   C    R2       H1   A1       H2    120.     0
 H4                   C    R2       H1   A1       H2   -120.     0
 H5                   H1   R3       C     180.     H2    0.       0
       Variables:
  R1                    3.085                    
  R2                    1.07922                  
  A1                   90.1955                   
  R3                    0.74343                  
 
 NAtoms=      6 NQM=      6 NQMF=      0 NMic=      0 NMicF=      0 NTot=      6.
                    Isotopes and Nuclear Properties:
 (Nuclear quadrupole moments (NQMom) in fm**2, nuclear magnetic moments (NMagM)
  in nuclear magnetons)

  Atom         1           2           3           4           5           6
 IAtWgt=          12           1           1           1           1           1
 AtmWgt=  12.0000000   1.0078250   1.0078250   1.0078250   1.0078250   1.0078250
 NucSpn=           0           1           1           1           1           1
 AtZEff=   0.0000000   0.0000000   0.0000000   0.0000000   0.0000000   0.0000000
 NQMom=    0.0000000   0.0000000   0.0000000   0.0000000   0.0000000   0.0000000
 NMagM=    0.0000000   2.7928460   2.7928460   2.7928460   2.7928460   2.7928460
 Leave Link  101 at Wed Nov  3 01:55:19 2010, MaxMem=  786432000 cpu:       1.0
 (Enter /share/apps/G09A02/g09/l202.exe)
                          Input orientation:                          
 ---------------------------------------------------------------------
 Center     Atomic      Atomic             Coordinates (Angstroms)
 Number     Number       Type             X           Y           Z
 ---------------------------------------------------------------------
      1          6           0        0.000000    0.000000    0.000000
      2          1           0        0.000000    0.000000    3.085002
      3          1           0        1.079217    0.000000   -0.003682
      4          1           0       -0.539609   -0.934629   -0.003682
      5          1           0       -0.539609    0.934629   -0.003682
      6          1           0        0.000000    0.000000    3.828432
 ---------------------------------------------------------------------
                    Distance matrix (angstroms):
                    1          2          3          4          5
     1  C    0.000000
     2  H    3.085002   0.000000
     3  H    1.079223   3.271801   0.000000
     4  H    1.079223   3.271801   1.869259   0.000000
     5  H    1.079223   3.271801   1.869259   1.869259   0.000000
     6  H    3.828432   0.743430   3.981182   3.981182   3.981182
                    6
     6  H    0.000000
 Symmetry turned off by external request.
 Stoichiometry    CH5(2)
 Framework group  C3V[C3(HHC),3SGV(H)]
 Deg. of freedom     4
 Full point group                 C3V     NOp   6
 Rotational constants (GHZ):    143.5136295     21.7049493     21.7049493
 Leave Link  202 at Wed Nov  3 01:55:19 2010, MaxMem=  786432000 cpu:       0.1
 (Enter /share/apps/G09A02/g09/l301.exe)
 Standard basis: 6-311+G(3df,2p) (5D, 7F)
 Ernie: Thresh=  0.10000D-02 Tol=  0.10000D-05 Strict=F.
 Integral buffers will be    131072 words long.
 Raffenetti 2 integral format.
 Two-electron integral symmetry is turned off.
    84 basis functions,   113 primitive gaussians,    90 cartesian basis functions
     6 alpha electrons        5 beta electrons
       nuclear repulsion energy        13.1295621198 Hartrees.
 IExCor=10402 DFT=T Ex=LC-B+HF Corr=LYP ExCW=0 ScaHFX=  1.000000
 ScaDFX=  1.000000  1.000000  1.000000  1.000000 ScalE2=  1.000000  1.000000
 IRadAn=      0 IRanWt=     -1 IRanGd=            0 ICorTp=0
  HFx wShort=  0.000000 wLong=  0.470000 cFull=  0.000000 cShort=  0.000000 cLong=  1.000000
  DFx wShort=  0.000000 wLong=  0.470000 cFull=  0.000000 cShort=  0.000000 cLong=  1.000000
 NAtoms=    6 NActive=    6 NUniq=    6 SFac= 7.50D-01 NAtFMM=   80 NAOKFM=F Big=F
 Leave Link  301 at Wed Nov  3 01:55:19 2010, MaxMem=  786432000 cpu:       0.6
 (Enter /share/apps/G09A02/g09/l302.exe)
 NPDir=0 NMtPBC=     1 NCelOv=     1 NCel=       1 NClECP=     1 NCelD=      1
         NCelK=      1 NCelE2=     1 NClLst=     1 CellRange=     0.0.
 One-electron integrals computed using PRISM.
 NBasis=    84 RedAO= T  NBF=    84
 NBsUse=    84 1.00D-06 NBFU=    84
 Precomputing XC quadrature grid using
 IXCGrd= 2 IRadAn=           0 IRanWt=          -1 IRanGd=           0 AccXCQ= 1.00D-10.
 NRdTot=     384 NPtTot=       48302 NUsed=       51081 NTot=       51113
 NSgBfM=    90    90    90    90    90 NAtAll=     6     6.
 Leave Link  302 at Wed Nov  3 01:55:20 2010, MaxMem=  786432000 cpu:       2.6
 (Enter /share/apps/G09A02/g09/l303.exe)
 DipDrv:  MaxL=1.
 Leave Link  303 at Wed Nov  3 01:55:20 2010, MaxMem=  786432000 cpu:       0.9
 (Enter /share/apps/G09A02/g09/l401.exe)
 Harris functional with IExCor=10402 diagonalized for initial guess.
 ExpMin= 4.38D-02 ExpMax= 4.56D+03 ExpMxC= 6.82D+02 IAcc=2 IRadAn=         0 AccDes= 0.00D+00
 HarFok:  IExCor=10402 AccDes= 0.00D+00 IRadAn=         0 IDoV= 1
 ScaDFX=  1.000000  1.000000  1.000000  1.000000
 FoFCou: FMM=F IPFlag=           0 FMFlag=      100000 FMFlg1=           0
         NFxFlg=           0 DoJE=T BraDBF=F KetDBF=T FulRan=T
         Omega=  0.000000  0.000000  1.000000  0.000000  0.000000 ICntrl=     500 IOpCl=  0
         NMat0=    1 NMatS0=    1 NMatT0=    0 NMatD0=    1 NMtDS0=    0 NMtDT0=    0
         I1Cent=           4 NGrid=           0.
 Symmetry not used in FoFCou.
 Harris En= -38.5361649764986    
 Initial guess <Sx>= 0.0000 <Sy>= 0.0000 <Sz>= 0.5000 <S**2>= 0.7500 S= 0.5000
 Leave Link  401 at Wed Nov  3 01:55:20 2010, MaxMem=  786432000 cpu:       3.7
 (Enter /share/apps/G09A02/g09/l502.exe)
 UHF open shell SCF:
 Requested convergence on RMS density matrix=1.00D-08 within 128 cycles.
 Requested convergence on MAX density matrix=1.00D-06.
 Requested convergence on             energy=1.00D-06.
 No special actions if energy rises.
 Using DIIS extrapolation, IDIIS=  1040.
 Two-electron integral symmetry not used.
        51014 words used for storage of precomputed grid.
 IEnd=       94732 IEndB=       94732 NGot=   786432000 MDV=   786362099
 LenX=   786362099 LenY=   786353558
 Fock matrices will be formed incrementally for  20 cycles.

 Cycle   1  Pass 1  IDiag  1:
 FoFJK:  IHMeth= 1 ICntrl=     0 DoSepK=T KAlg= 1 I1Cent= 0 FoldK=F
 FoFCou: FMM=F IPFlag=           0 FMFlag=      100000 FMFlg1=           0
         NFxFlg=           0 DoJE=T BraDBF=F KetDBF=F FulRan=T
         Omega=  0.000000  0.000000  1.000000  0.000000  0.000000 ICntrl=     500 IOpCl=  0
         NMat0=    1 NMatS0=    1 NMatT0=    0 NMatD0=    1 NMtDS0=    0 NMtDT0=    0
         I1Cent=           0 NGrid=           0.
 Symmetry not used in FoFCou.
 E= -40.8563015260009    
 DIIS: error= 2.09D-02 at cycle   1 NSaved=   1.
 NSaved= 1 IEnMin= 1 EnMin= -40.8563015260009     IErMin= 1 ErrMin= 2.09D-02
 ErrMax= 2.09D-02 EMaxC= 1.00D-01 BMatC= 6.03D-02 BMatP= 6.03D-02
 IDIUse=3 WtCom= 7.91D-01 WtEn= 2.09D-01
 Coeff-Com:  0.100D+01
 Coeff-En:   0.100D+01
 Coeff:      0.100D+01
 Gap=     0.390 Goal=   None    Shift=    0.000
 Gap=     0.621 Goal=   None    Shift=    0.000
 GapD=    0.390 DampG=1.000 DampE=0.500 DampFc=0.5000 IDamp=-1.
 Damping current iteration by 5.00D-01
 RMSDP=1.45D-03 MaxDP=6.44D-02              OVMax= 5.26D-02

 Cycle   2  Pass 1  IDiag  1:
 RMSU=  5.32D-04    CP:  9.82D-01
 FoFJK:  IHMeth= 1 ICntrl=     0 DoSepK=T KAlg= 1 I1Cent= 0 FoldK=F
 E= -40.8648998591600     Delta-E=       -0.008598333159 Rises=F Damp=T
 DIIS: error= 9.41D-03 at cycle   2 NSaved=   2.
 NSaved= 2 IEnMin= 2 EnMin= -40.8648998591600     IErMin= 2 ErrMin= 9.41D-03
 ErrMax= 9.41D-03 EMaxC= 1.00D-01 BMatC= 9.82D-03 BMatP= 6.03D-02
 IDIUse=3 WtCom= 9.06D-01 WtEn= 9.41D-02
 Coeff-Com: -0.436D+00 0.144D+01
 Coeff-En:   0.000D+00 0.100D+01
 Coeff:     -0.395D+00 0.139D+01
 Gap=     0.430 Goal=   None    Shift=    0.000
 Gap=     0.565 Goal=   None    Shift=    0.000
 RMSDP=7.87D-04 MaxDP=2.48D-02 DE=-8.60D-03 OVMax= 4.39D-02

 Cycle   3  Pass 1  IDiag  1:
 RMSU=  4.61D-04    CP:  9.76D-01  1.87D+00
 FoFJK:  IHMeth= 1 ICntrl=     0 DoSepK=T KAlg= 1 I1Cent= 0 FoldK=F
 E= -40.8745851974361     Delta-E=       -0.009685338276 Rises=F Damp=F
 DIIS: error= 2.90D-03 at cycle   3 NSaved=   3.
 NSaved= 3 IEnMin= 3 EnMin= -40.8745851974361     IErMin= 3 ErrMin= 2.90D-03
 ErrMax= 2.90D-03 EMaxC= 1.00D-01 BMatC= 7.25D-04 BMatP= 9.82D-03
 IDIUse=3 WtCom= 9.71D-01 WtEn= 2.90D-02
 Coeff-Com: -0.663D-01-0.648D-01 0.113D+01
 Coeff-En:   0.000D+00 0.000D+00 0.100D+01
 Coeff:     -0.643D-01-0.629D-01 0.113D+01
 Gap=     0.433 Goal=   None    Shift=    0.000
 Gap=     0.563 Goal=   None    Shift=    0.000
 RMSDP=2.68D-04 MaxDP=1.02D-02 DE=-9.69D-03 OVMax= 2.24D-02

 Cycle   4  Pass 1  IDiag  1:
 RMSU=  7.06D-05    CP:  9.73D-01  2.14D+00  1.33D+00
 FoFJK:  IHMeth= 1 ICntrl=     0 DoSepK=T KAlg= 1 I1Cent= 0 FoldK=F
 E= -40.8751226079254     Delta-E=       -0.000537410489 Rises=F Damp=F
 DIIS: error= 1.35D-03 at cycle   4 NSaved=   4.
 NSaved= 4 IEnMin= 4 EnMin= -40.8751226079254     IErMin= 4 ErrMin= 1.35D-03
 ErrMax= 1.35D-03 EMaxC= 1.00D-01 BMatC= 5.72D-05 BMatP= 7.25D-04
 IDIUse=3 WtCom= 9.87D-01 WtEn= 1.35D-02
 Coeff-Com:  0.350D-01-0.548D-01-0.361D+00 0.138D+01
 Coeff-En:   0.000D+00 0.000D+00 0.000D+00 0.100D+01
 Coeff:      0.345D-01-0.541D-01-0.357D+00 0.138D+01
 Gap=     0.435 Goal=   None    Shift=    0.000
 Gap=     0.563 Goal=   None    Shift=    0.000
 RMSDP=1.09D-04 MaxDP=4.24D-03 DE=-5.37D-04 OVMax= 9.98D-03

 Cycle   5  Pass 1  IDiag  1:
 RMSU=  1.37D-05    CP:  9.72D-01  2.21D+00  1.46D+00  1.68D+00
 FoFJK:  IHMeth= 1 ICntrl=     0 DoSepK=T KAlg= 1 I1Cent= 0 FoldK=F
 E= -40.8751868436226     Delta-E=       -0.000064235697 Rises=F Damp=F
 DIIS: error= 2.35D-04 at cycle   5 NSaved=   5.
 NSaved= 5 IEnMin= 5 EnMin= -40.8751868436226     IErMin= 5 ErrMin= 2.35D-04
 ErrMax= 2.35D-04 EMaxC= 1.00D-01 BMatC= 3.59D-06 BMatP= 5.72D-05
 IDIUse=3 WtCom= 9.98D-01 WtEn= 2.35D-03
 Coeff-Com: -0.700D-02 0.224D-01 0.724D-01-0.537D+00 0.145D+01
 Coeff-En:   0.000D+00 0.000D+00 0.000D+00 0.000D+00 0.100D+01
 Coeff:     -0.698D-02 0.224D-01 0.722D-01-0.536D+00 0.145D+01
 Gap=     0.435 Goal=   None    Shift=    0.000
 Gap=     0.563 Goal=   None    Shift=    0.000
 RMSDP=2.35D-05 MaxDP=7.27D-04 DE=-6.42D-05 OVMax= 1.54D-03

 Cycle   6  Pass 1  IDiag  1:
 RMSU=  4.11D-06    CP:  9.72D-01  2.21D+00  1.47D+00  1.87D+00  1.70D+00
 FoFJK:  IHMeth= 1 ICntrl=     0 DoSepK=T KAlg= 1 I1Cent= 0 FoldK=F
 E= -40.8751901325101     Delta-E=       -0.000003288887 Rises=F Damp=F
 DIIS: error= 3.68D-05 at cycle   6 NSaved=   6.
 NSaved= 6 IEnMin= 6 EnMin= -40.8751901325101     IErMin= 6 ErrMin= 3.68D-05
 ErrMax= 3.68D-05 EMaxC= 1.00D-01 BMatC= 1.90D-07 BMatP= 3.59D-06
 IDIUse=1 WtCom= 1.00D+00 WtEn= 0.00D+00
 Coeff-Com:  0.124D-03-0.434D-02-0.114D-01 0.139D+00-0.554D+00 0.143D+01
 Coeff:      0.124D-03-0.434D-02-0.114D-01 0.139D+00-0.554D+00 0.143D+01
 Gap=     0.435 Goal=   None    Shift=    0.000
 Gap=     0.563 Goal=   None    Shift=    0.000
 RMSDP=4.79D-06 MaxDP=1.01D-04 DE=-3.29D-06 OVMax= 2.35D-04

 Cycle   7  Pass 1  IDiag  1:
 RMSU=  1.23D-06    CP:  9.72D-01  2.21D+00  1.47D+00  1.87D+00  1.84D+00
                    CP:  1.78D+00
 FoFJK:  IHMeth= 1 ICntrl=     0 DoSepK=T KAlg= 1 I1Cent= 0 FoldK=F
 E= -40.8751903109510     Delta-E=       -0.000000178441 Rises=F Damp=F
 DIIS: error= 1.06D-05 at cycle   7 NSaved=   7.
 NSaved= 7 IEnMin= 7 EnMin= -40.8751903109510     IErMin= 7 ErrMin= 1.06D-05
 ErrMax= 1.06D-05 EMaxC= 1.00D-01 BMatC= 1.27D-08 BMatP= 1.90D-07
 IDIUse=1 WtCom= 1.00D+00 WtEn= 0.00D+00
 Coeff-Com:  0.815D-03-0.122D-02-0.238D-02 0.892D-02 0.193D-01-0.356D+00
 Coeff-Com:  0.133D+01
 Coeff:      0.815D-03-0.122D-02-0.238D-02 0.892D-02 0.193D-01-0.356D+00
 Coeff:      0.133D+01
 Gap=     0.435 Goal=   None    Shift=    0.000
 Gap=     0.563 Goal=   None    Shift=    0.000
 RMSDP=1.52D-06 MaxDP=3.53D-05 DE=-1.78D-07 OVMax= 7.55D-05

 Cycle   8  Pass 1  IDiag  1:
 RMSU=  2.67D-07    CP:  9.72D-01  2.21D+00  1.47D+00  1.87D+00  1.86D+00
                    CP:  2.04D+00  1.51D+00
 FoFJK:  IHMeth= 1 ICntrl=     0 DoSepK=T KAlg= 1 I1Cent= 0 FoldK=F
 E= -40.8751903223624     Delta-E=       -0.000000011411 Rises=F Damp=F
 DIIS: error= 1.42D-06 at cycle   8 NSaved=   8.
 NSaved= 8 IEnMin= 8 EnMin= -40.8751903223624     IErMin= 8 ErrMin= 1.42D-06
 ErrMax= 1.42D-06 EMaxC= 1.00D-01 BMatC= 2.89D-10 BMatP= 1.27D-08
 IDIUse=1 WtCom= 1.00D+00 WtEn= 0.00D+00
 Coeff-Com: -0.232D-04 0.245D-03 0.696D-03-0.774D-02 0.285D-01-0.589D-01
 Coeff-Com: -0.434D-01 0.108D+01
 Coeff:     -0.232D-04 0.245D-03 0.696D-03-0.774D-02 0.285D-01-0.589D-01
 Coeff:     -0.434D-01 0.108D+01
 Gap=     0.435 Goal=   None    Shift=    0.000
 Gap=     0.563 Goal=   None    Shift=    0.000
 RMSDP=2.12D-07 MaxDP=7.50D-06 DE=-1.14D-08 OVMax= 6.99D-06

 Cycle   9  Pass 1  IDiag  1:
 RMSU=  3.83D-08    CP:  9.72D-01  2.21D+00  1.47D+00  1.87D+00  1.86D+00
                    CP:  2.06D+00  1.60D+00  1.31D+00
 FoFJK:  IHMeth= 1 ICntrl=     0 DoSepK=T KAlg= 1 I1Cent= 0 FoldK=F
 E= -40.8751903225255     Delta-E=       -0.000000000163 Rises=F Damp=F
 DIIS: error= 5.94D-07 at cycle   9 NSaved=   9.
 NSaved= 9 IEnMin= 9 EnMin= -40.8751903225255     IErMin= 9 ErrMin= 5.94D-07
 ErrMax= 5.94D-07 EMaxC= 1.00D-01 BMatC= 1.73D-11 BMatP= 2.89D-10
 IDIUse=1 WtCom= 1.00D+00 WtEn= 0.00D+00
 Coeff-Com: -0.341D-04 0.848D-05-0.758D-04 0.125D-02-0.659D-02 0.258D-01
 Coeff-Com: -0.370D-01-0.224D+00 0.124D+01
 Coeff:     -0.341D-04 0.848D-05-0.758D-04 0.125D-02-0.659D-02 0.258D-01
 Coeff:     -0.370D-01-0.224D+00 0.124D+01
 Gap=     0.435 Goal=   None    Shift=    0.000
 Gap=     0.563 Goal=   None    Shift=    0.000
 RMSDP=5.22D-08 MaxDP=1.42D-06 DE=-1.63D-10 OVMax= 2.59D-06

 Cycle  10  Pass 1  IDiag  1:
 RMSU=  1.32D-08    CP:  9.72D-01  2.21D+00  1.47D+00  1.87D+00  1.86D+00
                    CP:  2.06D+00  1.61D+00  1.39D+00  1.47D+00
 FoFJK:  IHMeth= 1 ICntrl=     0 DoSepK=T KAlg= 1 I1Cent= 0 FoldK=F
 E= -40.8751903225387     Delta-E=       -0.000000000013 Rises=F Damp=F
 DIIS: error= 2.88D-07 at cycle  10 NSaved=  10.
 NSaved=10 IEnMin=10 EnMin= -40.8751903225387     IErMin=10 ErrMin= 2.88D-07
 ErrMax= 2.88D-07 EMaxC= 1.00D-01 BMatC= 2.50D-12 BMatP= 1.73D-11
 IDIUse=1 WtCom= 1.00D+00 WtEn= 0.00D+00
 Coeff-Com:  0.235D-04-0.262D-04-0.459D-05-0.129D-03 0.158D-02-0.993D-02
 Coeff-Com:  0.224D-01 0.491D-01-0.646D+00 0.158D+01
 Coeff:      0.235D-04-0.262D-04-0.459D-05-0.129D-03 0.158D-02-0.993D-02
 Coeff:      0.224D-01 0.491D-01-0.646D+00 0.158D+01
 Gap=     0.435 Goal=   None    Shift=    0.000
 Gap=     0.563 Goal=   None    Shift=    0.000
 RMSDP=1.96D-08 MaxDP=5.51D-07 DE=-1.33D-11 OVMax= 1.40D-06

 Cycle  11  Pass 1  IDiag  1:
 RMSU=  5.85D-09    CP:  9.72D-01  2.21D+00  1.47D+00  1.87D+00  1.86D+00
                    CP:  2.06D+00  1.61D+00  1.40D+00  1.67D+00  1.77D+00
 FoFJK:  IHMeth= 1 ICntrl=     0 DoSepK=T KAlg= 1 I1Cent= 0 FoldK=F
 E= -40.8751903225427     Delta-E=       -0.000000000004 Rises=F Damp=F
 DIIS: error= 9.85D-08 at cycle  11 NSaved=  11.
 NSaved=11 IEnMin=11 EnMin= -40.8751903225427     IErMin=11 ErrMin= 9.85D-08
 ErrMax= 9.85D-08 EMaxC= 1.00D-01 BMatC= 2.85D-13 BMatP= 2.50D-12
 IDIUse=1 WtCom= 1.00D+00 WtEn= 0.00D+00
 Coeff-Com: -0.803D-05 0.130D-04 0.102D-04-0.101D-03 0.104D-03 0.140D-02
 Coeff-Com: -0.618D-02 0.626D-02 0.138D+00-0.735D+00 0.159D+01
 Coeff:     -0.803D-05 0.130D-04 0.102D-04-0.101D-03 0.104D-03 0.140D-02
 Coeff:     -0.618D-02 0.626D-02 0.138D+00-0.735D+00 0.159D+01
 Gap=     0.435 Goal=   None    Shift=    0.000
 Gap=     0.563 Goal=   None    Shift=    0.000
 RMSDP=8.22D-09 MaxDP=2.72D-07 DE=-3.96D-12 OVMax= 6.12D-07

 SCF Done:  E(ULC-B+HF-LYP) =  -40.8751903225     A.U. after   11 cycles
             Convg  =    0.8221D-08             -V/T =  2.0050
 <Sx>= 0.0000 <Sy>= 0.0000 <Sz>= 0.5000 <S**2>= 0.7535 S= 0.5018
 <L.S>= 0.000000000000E+00
 KE= 4.067316415046D+01 PE=-1.203097152730D+02 EE= 2.563179868022D+01
 Annihilation of the first spin contaminant:
 S**2 before annihilation     0.7535,   after     0.7500
 Leave Link  502 at Wed Nov  3 01:55:52 2010, MaxMem=  786432000 cpu:     255.7
 (Enter /share/apps/G09A02/g09/l601.exe)
 Copying SCF densities to generalized density rwf, IOpCl= 1 IROHF=0.

 **********************************************************************

            Population analysis using the SCF density.

 **********************************************************************

 Alpha  occ. eigenvalues --  -10.14727  -0.85386  -0.56408  -0.55874  -0.55874
 Alpha  occ. eigenvalues --   -0.36630
 Alpha virt. eigenvalues --    0.06874   0.09243   0.09243   0.12795   0.16205
 Alpha virt. eigenvalues --    0.23394   0.23394   0.24036   0.35801   0.38894
 Alpha virt. eigenvalues --    0.38894   0.40352   0.40352   0.46822   0.62896
 Alpha virt. eigenvalues --    0.62896   0.63181   0.63989   0.66041   0.66041
 Alpha virt. eigenvalues --    0.71560   0.81161   0.82644   0.82644   0.94768
 Alpha virt. eigenvalues --    1.00370   1.00370   1.01847   1.12540   1.12540
 Alpha virt. eigenvalues --    1.18726   1.18726   1.20656   1.46606   1.49058
 Alpha virt. eigenvalues --    1.49058   1.61065   1.78655   1.78655   2.10675
 Alpha virt. eigenvalues --    2.14498   2.14499   2.40056   2.54643   2.59016
 Alpha virt. eigenvalues --    2.76832   2.76832   2.83617   3.05625   3.12519
 Alpha virt. eigenvalues --    3.12519   3.15509   3.20825   3.20825   3.54878
 Alpha virt. eigenvalues --    3.54878   3.72350   3.72350   3.87249   4.01773
 Alpha virt. eigenvalues --    4.27855   4.27855   4.33687   4.33687   4.34981
 Alpha virt. eigenvalues --    4.37714   4.37714   4.96587   5.35072   5.72840
 Alpha virt. eigenvalues --    5.72840   5.74444   7.15144   7.15145   7.27944
 Alpha virt. eigenvalues --    7.72574   7.72574  24.22728
  Beta  occ. eigenvalues --  -10.13307  -0.80785  -0.56266  -0.54812  -0.54812
  Beta virt. eigenvalues --    0.01486   0.06788   0.09068   0.09068   0.14934
  Beta virt. eigenvalues --    0.17085   0.23627   0.23627   0.24951   0.36027
  Beta virt. eigenvalues --    0.40046   0.40046   0.40392   0.40392   0.48500
  Beta virt. eigenvalues --    0.62999   0.62999   0.63530   0.66793   0.66793
  Beta virt. eigenvalues --    0.67711   0.71788   0.82066   0.82622   0.82622
  Beta virt. eigenvalues --    0.94733   1.00831   1.00832   1.02643   1.12681
  Beta virt. eigenvalues --    1.12681   1.18727   1.18728   1.21044   1.49388
  Beta virt. eigenvalues --    1.49580   1.49580   1.61157   1.83469   1.83469
  Beta virt. eigenvalues --    2.13857   2.15477   2.15478   2.40482   2.54845
  Beta virt. eigenvalues --    2.59045   2.78097   2.78098   2.89304   3.06025
  Beta virt. eigenvalues --    3.15466   3.15466   3.19803   3.24219   3.24219
  Beta virt. eigenvalues --    3.54949   3.54949   3.73258   3.73258   3.87457
  Beta virt. eigenvalues --    4.02177   4.27491   4.27491   4.34067   4.34067
  Beta virt. eigenvalues --    4.35701   4.38167   4.38167   4.96752   5.36031
  Beta virt. eigenvalues --    5.73426   5.73426   5.74494   7.21456   7.21458
  Beta virt. eigenvalues --    7.35959   7.74190   7.74190  24.24596
          Condensed to atoms (all electrons):
              1          2          3          4          5          6
     1  C    5.372668  -0.003638   0.401776   0.401778   0.401778  -0.005360
     2  H   -0.003638   0.587777   0.000047   0.000047   0.000047   0.422326
     3  H    0.401776   0.000047   0.449078  -0.021076  -0.021076   0.000019
     4  H    0.401778   0.000047  -0.021076   0.449073  -0.021076   0.000019
     5  H    0.401778   0.000047  -0.021076  -0.021076   0.449073   0.000019
     6  H   -0.005360   0.422326   0.000019   0.000019   0.000019   0.581071
 Mulliken atomic charges:
              1
     1  C   -0.569000
     2  H   -0.006606
     3  H    0.191232
     4  H    0.191235
     5  H    0.191235
     6  H    0.001905
 Sum of Mulliken atomic charges =   0.00000
 Mulliken charges with hydrogens summed into heavy atoms:
              1
     1  C    0.000000
 Sum of Mulliken charges with hydrogens summed into heavy atoms =   0.00000
          Atomic-Atomic Spin Densities.
              1          2          3          4          5          6
     1  C    1.058096  -0.000771   0.005151   0.005150   0.005150  -0.003975
     2  H   -0.000771  -0.004725  -0.000014  -0.000014  -0.000014   0.000482
     3  H    0.005151  -0.000014  -0.034660   0.002927   0.002927  -0.000014
     4  H    0.005150  -0.000014   0.002927  -0.034660   0.002927  -0.000014
     5  H    0.005150  -0.000014   0.002927   0.002927  -0.034660  -0.000014
     6  H   -0.003975   0.000482  -0.000014  -0.000014  -0.000014   0.010842
 Mulliken atomic spin densities:
              1
     1  C    1.068800
     2  H   -0.005056
     3  H   -0.023684
     4  H   -0.023684
     5  H   -0.023684
     6  H    0.007307
 Sum of Mulliken atomic spin densities =   1.00000
 Electronic spatial extent (au):  <R**2>=            121.0678
 Charge=              0.0000 electrons
 Dipole moment (field-independent basis, Debye):
    X=              0.0000    Y=              0.0000    Z=             -0.0633  Tot=              0.0633
 Quadrupole moment (field-independent basis, Debye-Ang):
   XX=             -9.4678   YY=             -9.4678   ZZ=            -11.0082
   XY=              0.0000   XZ=              0.0000   YZ=              0.0000
 Traceless Quadrupole moment (field-independent basis, Debye-Ang):
   XX=              0.5135   YY=              0.5135   ZZ=             -1.0269
   XY=              0.0000   XZ=              0.0000   YZ=              0.0000
 Octapole moment (field-independent basis, Debye-Ang**2):
  XXX=              0.9806  YYY=              0.0000  ZZZ=            -17.3716  XYY=             -0.9806
  XXY=              0.0000  XXZ=             -7.5347  XZZ=              0.0000  YZZ=              0.0000
  YYZ=             -7.5347  XYZ=              0.0000
 Hexadecapole moment (field-independent basis, Debye-Ang**3):
 XXXX=            -17.6431 YYYY=            -17.6431 ZZZZ=           -133.0976 XXXY=              0.0000
 XXXZ=             -0.0063 YYYX=              0.0000 YYYZ=              0.0000 ZZZX=              0.0000
 ZZZY=              0.0000 XXYY=             -5.8810 XXZZ=            -32.0180 YYZZ=            -32.0180
 XXYZ=              0.0000 YYXZ=              0.0063 ZZXY=              0.0000
 N-N= 1.312956211979D+01 E-N=-1.773736033990D+02  KE= 6.040658030112D+01
                          Isotropic Fermi Contact Couplings
        Atom                 a.u.       MegaHertz       Gauss      10(-4) cm-1
     1  C(13)              0.02872      32.29134      11.52235      10.77123
     2  H(1)              -0.00040      -1.80128      -0.64274      -0.60084
     3  H(1)              -0.01320     -59.00889     -21.05584     -19.68325
     4  H(1)              -0.01320     -59.00932     -21.05599     -19.68339
     5  H(1)              -0.01320     -59.00932     -21.05599     -19.68339
     6  H(1)               0.00288      12.85728       4.58780       4.28873
 --------------------------------------------------------
       Center         ----  Spin Dipole Couplings  ----
                      3XX-RR        3YY-RR        3ZZ-RR
 --------------------------------------------------------
     1   Atom       -0.592088     -0.592089      1.184177
     2   Atom       -0.007797     -0.007797      0.015594
     3   Atom        0.074219     -0.075272      0.001054
     4   Atom       -0.037900      0.036846      0.001054
     5   Atom       -0.037900      0.036846      0.001054
     6   Atom       -0.003071     -0.003071      0.006143
 --------------------------------------------------------
                        XY            XZ            YZ
 --------------------------------------------------------
     1   Atom        0.000000     -0.000001      0.000000
     2   Atom        0.000000      0.000000      0.000000
     3   Atom        0.000000     -0.000200      0.000000
     4   Atom        0.064732      0.000100      0.000173
     5   Atom       -0.064732      0.000100     -0.000173
     6   Atom        0.000000      0.000000      0.000000
 --------------------------------------------------------


 ---------------------------------------------------------------------------------
              Anisotropic Spin Dipole Couplings in Principal Axis System
 ---------------------------------------------------------------------------------

       Atom             a.u.   MegaHertz   Gauss  10(-4) cm-1        Axes

              Baa    -0.5921   -79.453   -28.351   -26.503  0.0000  1.0000  0.0000
     1 C(13)  Bbb    -0.5921   -79.452   -28.351   -26.502  1.0000  0.0000  0.0000
              Bcc     1.1842   158.905    56.701    53.005  0.0000  0.0000  1.0000
 
              Baa    -0.0078    -4.160    -1.484    -1.388  1.0000  0.0000  0.0000
     2 H(1)   Bbb    -0.0078    -4.160    -1.484    -1.388  0.0000  1.0000  0.0000
              Bcc     0.0156     8.320     2.969     2.775  0.0000  0.0000  1.0000
 
              Baa    -0.0753   -40.162   -14.331   -13.397  0.0000  1.0000  0.0000
     3 H(1)   Bbb     0.0011     0.562     0.200     0.187  0.0027  0.0000  1.0000
              Bcc     0.0742    39.600    14.130    13.209  1.0000  0.0000 -0.0027
 
              Baa    -0.0753   -40.162   -14.331   -13.397  0.8660 -0.5000  0.0000
     4 H(1)   Bbb     0.0011     0.562     0.200     0.187 -0.0014 -0.0024  1.0000
              Bcc     0.0742    39.600    14.130    13.209  0.5000  0.8660  0.0027
 
              Baa    -0.0753   -40.162   -14.331   -13.397  0.8660  0.5000  0.0000
     5 H(1)   Bbb     0.0011     0.562     0.200     0.187 -0.0014  0.0024  1.0000
              Bcc     0.0742    39.600    14.130    13.209 -0.5000  0.8660 -0.0027
 
              Baa    -0.0031    -1.639    -0.585    -0.547  1.0000  0.0000  0.0000
     6 H(1)   Bbb    -0.0031    -1.639    -0.585    -0.547  0.0000  1.0000  0.0000
              Bcc     0.0061     3.278     1.170     1.093  0.0000  0.0000  1.0000
 

 ---------------------------------------------------------------------------------

 No NMR shielding tensors so no spin-rotation constants.
 Leave Link  601 at Wed Nov  3 01:55:53 2010, MaxMem=  786432000 cpu:       3.9
 (Enter /share/apps/G09A02/g09/l9999.exe)
 1\1\GINC-COMPUTE-0-7\SP\ULC-BLYP\6-311+G(3df,2p)\C1H5(2)\WENXINZY\03-N
 ov-2010\0\\#p lc-blyp/6-311+g(3df,2p) nosymm scf=tight\\35 H2+CH3\\0,2
 \C\H,1,3.0850017\H,1,1.0792234,2,90.1955001\H,1,1.0792234,2,90.1955001
 ,3,120.,0\H,1,1.0792234,2,90.1955001,3,-120.,0\H,2,0.7434301,1,180.,3,
 0.,0\\Version=EM64L-G09RevA.02\HF=-40.8751903\S2=0.75355\S2-1=0.\S2A=0
 .750007\RMSD=8.221e-09\Dipole=-0.0000007,0.,-0.0249174\Quadrupole=0.38
 17428,0.3817464,-0.7634892,0.,0.0000032,0.\PG=C03V [C3(H1H1C1),3SGV(H1
 )]\\@


 Other things may change us, but we start and end with family.
 -- Anthony Brandt
 Job cpu time:  0 days  0 hours  4 minutes 30.6 seconds.
 File lengths (MBytes):  RWF=      9 Int=      0 D2E=      0 Chk=      1 Scr=      1
 Normal termination of Gaussian 09 at Wed Nov  3 01:55:53 2010.
