 Entering Gaussian System, Link 0=/share/apps/G09A02/g09/g09
 Input=./.script12553/Job_H2_CH3_21.com
 Output=./.script12553/Job_H2_CH3_21.log
 Initial command:
 /share/apps/G09A02/g09/l1.exe /state/partition1/wenxinzy/scratch/Gau-19703.inp -scrdir=/state/partition1/wenxinzy/scratch/
 Default is to use a total of   8 processors:
                                8 via shared-memory
                                1 via Linda
 Entering Link 1 = /share/apps/G09A02/g09/l1.exe PID=     19704.
  
 Copyright (c) 1988,1990,1992,1993,1995,1998,2003,2009, Gaussian, Inc.
                  All Rights Reserved.
  
 This is part of the Gaussian(R) 09 program.  It is based on
 the Gaussian(R) 03 system (copyright 2003, Gaussian, Inc.),
 the Gaussian(R) 98 system (copyright 1998, Gaussian, Inc.),
 the Gaussian(R) 94 system (copyright 1995, Gaussian, Inc.),
 the Gaussian 92(TM) system (copyright 1992, Gaussian, Inc.),
 the Gaussian 90(TM) system (copyright 1990, Gaussian, Inc.),
 the Gaussian 88(TM) system (copyright 1988, Gaussian, Inc.),
 the Gaussian 86(TM) system (copyright 1986, Carnegie Mellon
 University), and the Gaussian 82(TM) system (copyright 1983,
 Carnegie Mellon University). Gaussian is a federally registered
 trademark of Gaussian, Inc.
  
 This software contains proprietary and confidential information,
 including trade secrets, belonging to Gaussian, Inc.
  
 This software is provided under written license and may be
 used, copied, transmitted, or stored only in accord with that
 written license.
  
 The following legend is applicable only to US Government
 contracts under FAR:
  
                    RESTRICTED RIGHTS LEGEND
  
 Use, reproduction and disclosure by the US Government is
 subject to restrictions as set forth in subparagraphs (a)
 and (c) of the Commercial Computer Software - Restricted
 Rights clause in FAR 52.227-19.
  
 Gaussian, Inc.
 340 Quinnipiac St., Bldg. 40, Wallingford CT 06492
  
  
 ---------------------------------------------------------------
 Warning -- This program may not be used in any manner that
 competes with the business of Gaussian, Inc. or will provide
 assistance to any competitor of Gaussian, Inc.  The licensee
 of this program is prohibited from giving any competitor of
 Gaussian, Inc. access to this program.  By using this program,
 the user acknowledges that Gaussian, Inc. is engaged in the
 business of creating and licensing software in the field of
 computational chemistry and represents and warrants to the
 licensee that it is not a competitor of Gaussian, Inc. and that
 it will not use this program in any manner prohibited above.
 ---------------------------------------------------------------
  

 Cite this work as:
 Gaussian 09, Revision A.02,
 M. J. Frisch, G. W. Trucks, H. B. Schlegel, G. E. Scuseria, 
 M. A. Robb, J. R. Cheeseman, G. Scalmani, V. Barone, B. Mennucci, 
 G. A. Petersson, H. Nakatsuji, M. Caricato, X. Li, H. P. Hratchian, 
 A. F. Izmaylov, J. Bloino, G. Zheng, J. L. Sonnenberg, M. Hada, 
 M. Ehara, K. Toyota, R. Fukuda, J. Hasegawa, M. Ishida, T. Nakajima, 
 Y. Honda, O. Kitao, H. Nakai, T. Vreven, J. A. Montgomery, Jr., 
 J. E. Peralta, F. Ogliaro, M. Bearpark, J. J. Heyd, E. Brothers, 
 K. N. Kudin, V. N. Staroverov, R. Kobayashi, J. Normand, 
 K. Raghavachari, A. Rendell, J. C. Burant, S. S. Iyengar, J. Tomasi, 
 M. Cossi, N. Rega, J. M. Millam, M. Klene, J. E. Knox, J. B. Cross, 
 V. Bakken, C. Adamo, J. Jaramillo, R. Gomperts, R. E. Stratmann, 
 O. Yazyev, A. J. Austin, R. Cammi, C. Pomelli, J. W. Ochterski, 
 R. L. Martin, K. Morokuma, V. G. Zakrzewski, G. A. Voth, 
 P. Salvador, J. J. Dannenberg, S. Dapprich, A. D. Daniels, 
 O. Farkas, J. B. Foresman, J. V. Ortiz, J. Cioslowski, 
 and D. J. Fox, Gaussian, Inc., Wallingford CT, 2009.
 
 ******************************************
 Gaussian 09:  EM64L-G09RevA.02 11-Jun-2009
                 3-Nov-2010 
 ******************************************
 %chk=/state/partition1/wenxinzy/scratch/H2_CH3_21.chk
 %nproc=8
 Will use up to    8 processors via shared memory.
 %mem=6000mb
 -------------------------------------------
 #p lc-blyp/6-311+g(3df,2p) nosymm scf=tight
 -------------------------------------------
 1/38=1/1;
 2/12=2,15=1,17=6,18=5,40=1/2;
 3/5=4,6=6,7=216,11=2,16=1,25=1,30=1,74=1000402/1,2,3;
 4//1;
 5/5=2,32=2,38=5/2;
 6/7=2,8=2,9=2,10=2,28=1/1;
 99/5=1,9=1/99;
 Leave Link    1 at Wed Nov  3 01:47:54 2010, MaxMem=  786432000 cpu:       0.4
 (Enter /share/apps/G09A02/g09/l101.exe)
 ---------
 22 H2+CH3
 ---------
 Symbolic Z-matrix:
 Charge =  0 Multiplicity = 2
 C
 H1                   C    R1
 H2                   C    R2       H1   A1
 H3                   C    R2       H1   A1       H2    120.     0
 H4                   C    R2       H1   A1       H2   -120.     0
 H5                   H1   R3       C     180.     H2    0.       0
       Variables:
  R1                    2.57531                  
  R2                    1.07928                  
  A1                   90.34276                  
  R3                    0.74488                  
 
 NAtoms=      6 NQM=      6 NQMF=      0 NMic=      0 NMicF=      0 NTot=      6.
                    Isotopes and Nuclear Properties:
 (Nuclear quadrupole moments (NQMom) in fm**2, nuclear magnetic moments (NMagM)
  in nuclear magnetons)

  Atom         1           2           3           4           5           6
 IAtWgt=          12           1           1           1           1           1
 AtmWgt=  12.0000000   1.0078250   1.0078250   1.0078250   1.0078250   1.0078250
 NucSpn=           0           1           1           1           1           1
 AtZEff=   0.0000000   0.0000000   0.0000000   0.0000000   0.0000000   0.0000000
 NQMom=    0.0000000   0.0000000   0.0000000   0.0000000   0.0000000   0.0000000
 NMagM=    0.0000000   2.7928460   2.7928460   2.7928460   2.7928460   2.7928460
 Leave Link  101 at Wed Nov  3 01:47:54 2010, MaxMem=  786432000 cpu:       1.2
 (Enter /share/apps/G09A02/g09/l202.exe)
                          Input orientation:                          
 ---------------------------------------------------------------------
 Center     Atomic      Atomic             Coordinates (Angstroms)
 Number     Number       Type             X           Y           Z
 ---------------------------------------------------------------------
      1          6           0        0.000000    0.000000    0.000000
      2          1           0        0.000000    0.000000    2.575308
      3          1           0        1.079258    0.000000   -0.006457
      4          1           0       -0.539629   -0.934665   -0.006457
      5          1           0       -0.539629    0.934665   -0.006457
      6          1           0        0.000000    0.000000    3.320185
 ---------------------------------------------------------------------
                    Distance matrix (angstroms):
                    1          2          3          4          5
     1  C    0.000000
     2  H    2.575308   0.000000
     3  H    1.079278   2.798268   0.000000
     4  H    1.079278   2.798268   1.869330   0.000000
     5  H    1.079278   2.798268   1.869330   1.869330   0.000000
     6  H    3.320185   0.744877   3.497333   3.497333   3.497333
                    6
     6  H    0.000000
 Symmetry turned off by external request.
 Stoichiometry    CH5(2)
 Framework group  C3V[C3(HHC),3SGV(H)]
 Deg. of freedom     4
 Full point group                 C3V     NOp   6
 Rotational constants (GHZ):    143.5026540     28.8842324     28.8842324
 Leave Link  202 at Wed Nov  3 01:47:54 2010, MaxMem=  786432000 cpu:       0.0
 (Enter /share/apps/G09A02/g09/l301.exe)
 Standard basis: 6-311+G(3df,2p) (5D, 7F)
 Ernie: Thresh=  0.10000D-02 Tol=  0.10000D-05 Strict=F.
 Integral buffers will be    131072 words long.
 Raffenetti 2 integral format.
 Two-electron integral symmetry is turned off.
    84 basis functions,   113 primitive gaussians,    90 cartesian basis functions
     6 alpha electrons        5 beta electrons
       nuclear repulsion energy        13.5956273004 Hartrees.
 IExCor=10402 DFT=T Ex=LC-B+HF Corr=LYP ExCW=0 ScaHFX=  1.000000
 ScaDFX=  1.000000  1.000000  1.000000  1.000000 ScalE2=  1.000000  1.000000
 IRadAn=      0 IRanWt=     -1 IRanGd=            0 ICorTp=0
  HFx wShort=  0.000000 wLong=  0.470000 cFull=  0.000000 cShort=  0.000000 cLong=  1.000000
  DFx wShort=  0.000000 wLong=  0.470000 cFull=  0.000000 cShort=  0.000000 cLong=  1.000000
 NAtoms=    6 NActive=    6 NUniq=    6 SFac= 7.50D-01 NAtFMM=   80 NAOKFM=F Big=F
 Leave Link  301 at Wed Nov  3 01:47:54 2010, MaxMem=  786432000 cpu:       0.6
 (Enter /share/apps/G09A02/g09/l302.exe)
 NPDir=0 NMtPBC=     1 NCelOv=     1 NCel=       1 NClECP=     1 NCelD=      1
         NCelK=      1 NCelE2=     1 NClLst=     1 CellRange=     0.0.
 One-electron integrals computed using PRISM.
 NBasis=    84 RedAO= T  NBF=    84
 NBsUse=    84 1.00D-06 NBFU=    84
 Precomputing XC quadrature grid using
 IXCGrd= 2 IRadAn=           0 IRanWt=          -1 IRanGd=           0 AccXCQ= 1.00D-10.
 NRdTot=     384 NPtTot=       48302 NUsed=       51081 NTot=       51113
 NSgBfM=    90    90    90    90    90 NAtAll=     6     6.
 Leave Link  302 at Wed Nov  3 01:47:54 2010, MaxMem=  786432000 cpu:       2.5
 (Enter /share/apps/G09A02/g09/l303.exe)
 DipDrv:  MaxL=1.
 Leave Link  303 at Wed Nov  3 01:47:54 2010, MaxMem=  786432000 cpu:       0.9
 (Enter /share/apps/G09A02/g09/l401.exe)
 Harris functional with IExCor=10402 diagonalized for initial guess.
 ExpMin= 4.38D-02 ExpMax= 4.56D+03 ExpMxC= 6.82D+02 IAcc=2 IRadAn=         0 AccDes= 0.00D+00
 HarFok:  IExCor=10402 AccDes= 0.00D+00 IRadAn=         0 IDoV= 1
 ScaDFX=  1.000000  1.000000  1.000000  1.000000
 FoFCou: FMM=F IPFlag=           0 FMFlag=      100000 FMFlg1=           0
         NFxFlg=           0 DoJE=T BraDBF=F KetDBF=T FulRan=T
         Omega=  0.000000  0.000000  1.000000  0.000000  0.000000 ICntrl=     500 IOpCl=  0
         NMat0=    1 NMatS0=    1 NMatT0=    0 NMatD0=    1 NMtDS0=    0 NMtDT0=    0
         I1Cent=           4 NGrid=           0.
 Symmetry not used in FoFCou.
 Harris En= -38.5353924381891    
 Initial guess <Sx>= 0.0000 <Sy>= 0.0000 <Sz>= 0.5000 <S**2>= 0.7500 S= 0.5000
 Leave Link  401 at Wed Nov  3 01:47:55 2010, MaxMem=  786432000 cpu:       3.7
 (Enter /share/apps/G09A02/g09/l502.exe)
 UHF open shell SCF:
 Requested convergence on RMS density matrix=1.00D-08 within 128 cycles.
 Requested convergence on MAX density matrix=1.00D-06.
 Requested convergence on             energy=1.00D-06.
 No special actions if energy rises.
 Using DIIS extrapolation, IDIIS=  1040.
 Two-electron integral symmetry not used.
        51014 words used for storage of precomputed grid.
 IEnd=       94732 IEndB=       94732 NGot=   786432000 MDV=   786362099
 LenX=   786362099 LenY=   786353558
 Fock matrices will be formed incrementally for  20 cycles.

 Cycle   1  Pass 1  IDiag  1:
 FoFJK:  IHMeth= 1 ICntrl=     0 DoSepK=T KAlg= 1 I1Cent= 0 FoldK=F
 FoFCou: FMM=F IPFlag=           0 FMFlag=      100000 FMFlg1=           0
         NFxFlg=           0 DoJE=T BraDBF=F KetDBF=F FulRan=T
         Omega=  0.000000  0.000000  1.000000  0.000000  0.000000 ICntrl=     500 IOpCl=  0
         NMat0=    1 NMatS0=    1 NMatT0=    0 NMatD0=    1 NMtDS0=    0 NMtDT0=    0
         I1Cent=           0 NGrid=           0.
 Symmetry not used in FoFCou.
 E= -40.8556195198580    
 DIIS: error= 2.00D-02 at cycle   1 NSaved=   1.
 NSaved= 1 IEnMin= 1 EnMin= -40.8556195198580     IErMin= 1 ErrMin= 2.00D-02
 ErrMax= 2.00D-02 EMaxC= 1.00D-01 BMatC= 6.20D-02 BMatP= 6.20D-02
 IDIUse=3 WtCom= 8.00D-01 WtEn= 2.00D-01
 Coeff-Com:  0.100D+01
 Coeff-En:   0.100D+01
 Coeff:      0.100D+01
 Gap=     0.389 Goal=   None    Shift=    0.000
 Gap=     0.619 Goal=   None    Shift=    0.000
 GapD=    0.389 DampG=1.000 DampE=0.500 DampFc=0.5000 IDamp=-1.
 Damping current iteration by 5.00D-01
 RMSDP=1.53D-03 MaxDP=6.52D-02              OVMax= 5.32D-02

 Cycle   2  Pass 1  IDiag  1:
 RMSU=  5.71D-04    CP:  9.81D-01
 FoFJK:  IHMeth= 1 ICntrl=     0 DoSepK=T KAlg= 1 I1Cent= 0 FoldK=F
 E= -40.8645179840809     Delta-E=       -0.008898464223 Rises=F Damp=T
 DIIS: error= 9.01D-03 at cycle   2 NSaved=   2.
 NSaved= 2 IEnMin= 2 EnMin= -40.8645179840809     IErMin= 2 ErrMin= 9.01D-03
 ErrMax= 9.01D-03 EMaxC= 1.00D-01 BMatC= 9.95D-03 BMatP= 6.20D-02
 IDIUse=3 WtCom= 9.10D-01 WtEn= 9.01D-02
 Coeff-Com: -0.426D+00 0.143D+01
 Coeff-En:   0.000D+00 0.100D+01
 Coeff:     -0.388D+00 0.139D+01
 Gap=     0.430 Goal=   None    Shift=    0.000
 Gap=     0.566 Goal=   None    Shift=    0.000
 RMSDP=8.82D-04 MaxDP=2.37D-02 DE=-8.90D-03 OVMax= 4.33D-02

 Cycle   3  Pass 1  IDiag  1:
 RMSU=  5.06D-04    CP:  9.72D-01  1.93D+00
 FoFJK:  IHMeth= 1 ICntrl=     0 DoSepK=T KAlg= 1 I1Cent= 0 FoldK=F
 E= -40.8744653246009     Delta-E=       -0.009947340520 Rises=F Damp=F
 DIIS: error= 2.78D-03 at cycle   3 NSaved=   3.
 NSaved= 3 IEnMin= 3 EnMin= -40.8744653246009     IErMin= 3 ErrMin= 2.78D-03
 ErrMax= 2.78D-03 EMaxC= 1.00D-01 BMatC= 7.24D-04 BMatP= 9.95D-03
 IDIUse=3 WtCom= 9.72D-01 WtEn= 2.78D-02
 Coeff-Com: -0.621D-01-0.730D-01 0.114D+01
 Coeff-En:   0.000D+00 0.000D+00 0.100D+01
 Coeff:     -0.604D-01-0.710D-01 0.113D+01
 Gap=     0.432 Goal=   None    Shift=    0.000
 Gap=     0.565 Goal=   None    Shift=    0.000
 RMSDP=2.90D-04 MaxDP=9.74D-03 DE=-9.95D-03 OVMax= 2.16D-02

 Cycle   4  Pass 1  IDiag  1:
 RMSU=  7.45D-05    CP:  9.68D-01  2.21D+00  1.32D+00
 FoFJK:  IHMeth= 1 ICntrl=     0 DoSepK=T KAlg= 1 I1Cent= 0 FoldK=F
 E= -40.8750016809865     Delta-E=       -0.000536356386 Rises=F Damp=F
 DIIS: error= 1.17D-03 at cycle   4 NSaved=   4.
 NSaved= 4 IEnMin= 4 EnMin= -40.8750016809865     IErMin= 4 ErrMin= 1.17D-03
 ErrMax= 1.17D-03 EMaxC= 1.00D-01 BMatC= 5.65D-05 BMatP= 7.24D-04
 IDIUse=3 WtCom= 9.88D-01 WtEn= 1.17D-02
 Coeff-Com:  0.313D-01-0.496D-01-0.348D+00 0.137D+01
 Coeff-En:   0.000D+00 0.000D+00 0.000D+00 0.100D+01
 Coeff:      0.309D-01-0.490D-01-0.344D+00 0.136D+01
 Gap=     0.434 Goal=   None    Shift=    0.000
 Gap=     0.565 Goal=   None    Shift=    0.000
 RMSDP=1.12D-04 MaxDP=3.96D-03 DE=-5.36D-04 OVMax= 9.49D-03

 Cycle   5  Pass 1  IDiag  1:
 RMSU=  1.47D-05    CP:  9.67D-01  2.28D+00  1.44D+00  1.66D+00
 FoFJK:  IHMeth= 1 ICntrl=     0 DoSepK=T KAlg= 1 I1Cent= 0 FoldK=F
 E= -40.8750638438211     Delta-E=       -0.000062162835 Rises=F Damp=F
 DIIS: error= 2.23D-04 at cycle   5 NSaved=   5.
 NSaved= 5 IEnMin= 5 EnMin= -40.8750638438211     IErMin= 5 ErrMin= 2.23D-04
 ErrMax= 2.23D-04 EMaxC= 1.00D-01 BMatC= 3.73D-06 BMatP= 5.65D-05
 IDIUse=3 WtCom= 9.98D-01 WtEn= 2.23D-03
 Coeff-Com: -0.573D-02 0.208D-01 0.638D-01-0.519D+00 0.144D+01
 Coeff-En:   0.000D+00 0.000D+00 0.000D+00 0.000D+00 0.100D+01
 Coeff:     -0.572D-02 0.207D-01 0.636D-01-0.518D+00 0.144D+01
 Gap=     0.435 Goal=   None    Shift=    0.000
 Gap=     0.565 Goal=   None    Shift=    0.000
 RMSDP=2.41D-05 MaxDP=7.05D-04 DE=-6.22D-05 OVMax= 1.57D-03

 Cycle   6  Pass 1  IDiag  1:
 RMSU=  4.42D-06    CP:  9.67D-01  2.28D+00  1.46D+00  1.84D+00  1.69D+00
 FoFJK:  IHMeth= 1 ICntrl=     0 DoSepK=T KAlg= 1 I1Cent= 0 FoldK=F
 E= -40.8750672856389     Delta-E=       -0.000003441818 Rises=F Damp=F
 DIIS: error= 3.96D-05 at cycle   6 NSaved=   6.
 NSaved= 6 IEnMin= 6 EnMin= -40.8750672856389     IErMin= 6 ErrMin= 3.96D-05
 ErrMax= 3.96D-05 EMaxC= 1.00D-01 BMatC= 2.11D-07 BMatP= 3.73D-06
 IDIUse=1 WtCom= 1.00D+00 WtEn= 0.00D+00
 Coeff-Com: -0.779D-03-0.160D-02 0.297D-03 0.660D-01-0.386D+00 0.132D+01
 Coeff:     -0.779D-03-0.160D-02 0.297D-03 0.660D-01-0.386D+00 0.132D+01
 Gap=     0.435 Goal=   None    Shift=    0.000
 Gap=     0.565 Goal=   None    Shift=    0.000
 RMSDP=4.80D-06 MaxDP=9.74D-05 DE=-3.44D-06 OVMax= 2.29D-04

 Cycle   7  Pass 1  IDiag  1:
 RMSU=  1.49D-06    CP:  9.67D-01  2.28D+00  1.46D+00  1.85D+00  1.82D+00
                    CP:  1.67D+00
 FoFJK:  IHMeth= 1 ICntrl=     0 DoSepK=T KAlg= 1 I1Cent= 0 FoldK=F
 E= -40.8750674758671     Delta-E=       -0.000000190228 Rises=F Damp=F
 DIIS: error= 1.32D-05 at cycle   7 NSaved=   7.
 NSaved= 7 IEnMin= 7 EnMin= -40.8750674758671     IErMin= 7 ErrMin= 1.32D-05
 ErrMax= 1.32D-05 EMaxC= 1.00D-01 BMatC= 1.77D-08 BMatP= 2.11D-07
 IDIUse=1 WtCom= 1.00D+00 WtEn= 0.00D+00
 Coeff-Com:  0.790D-03-0.195D-02-0.557D-02 0.382D-01-0.729D-01-0.238D+00
 Coeff-Com:  0.128D+01
 Coeff:      0.790D-03-0.195D-02-0.557D-02 0.382D-01-0.729D-01-0.238D+00
 Coeff:      0.128D+01
 Gap=     0.435 Goal=   None    Shift=    0.000
 Gap=     0.565 Goal=   None    Shift=    0.000
 RMSDP=1.76D-06 MaxDP=3.68D-05 DE=-1.90D-07 OVMax= 8.43D-05

 Cycle   8  Pass 1  IDiag  1:
 RMSU=  2.94D-07    CP:  9.67D-01  2.28D+00  1.46D+00  1.85D+00  1.84D+00
                    CP:  1.94D+00  1.51D+00
 FoFJK:  IHMeth= 1 ICntrl=     0 DoSepK=T KAlg= 1 I1Cent= 0 FoldK=F
 E= -40.8750674925681     Delta-E=       -0.000000016701 Rises=F Damp=F
 DIIS: error= 1.99D-06 at cycle   8 NSaved=   8.
 NSaved= 8 IEnMin= 8 EnMin= -40.8750674925681     IErMin= 8 ErrMin= 1.99D-06
 ErrMax= 1.99D-06 EMaxC= 1.00D-01 BMatC= 6.52D-10 BMatP= 1.77D-08
 IDIUse=1 WtCom= 1.00D+00 WtEn= 0.00D+00
 Coeff-Com:  0.103D-05 0.257D-03 0.836D-03-0.933D-02 0.337D-01-0.468D-01
 Coeff-Com: -0.172D+00 0.119D+01
 Coeff:      0.103D-05 0.257D-03 0.836D-03-0.933D-02 0.337D-01-0.468D-01
 Coeff:     -0.172D+00 0.119D+01
 Gap=     0.435 Goal=   None    Shift=    0.000
 Gap=     0.565 Goal=   None    Shift=    0.000
 RMSDP=3.23D-07 MaxDP=9.14D-06 DE=-1.67D-08 OVMax= 1.36D-05

 Cycle   9  Pass 1  IDiag  1:
 RMSU=  5.41D-08    CP:  9.67D-01  2.28D+00  1.46D+00  1.85D+00  1.84D+00
                    CP:  1.98D+00  1.62D+00  1.42D+00
 FoFJK:  IHMeth= 1 ICntrl=     0 DoSepK=T KAlg= 1 I1Cent= 0 FoldK=F
 E= -40.8750674930416     Delta-E=       -0.000000000473 Rises=F Damp=F
 DIIS: error= 7.49D-07 at cycle   9 NSaved=   9.
 NSaved= 9 IEnMin= 9 EnMin= -40.8750674930416     IErMin= 9 ErrMin= 7.49D-07
 ErrMax= 7.49D-07 EMaxC= 1.00D-01 BMatC= 3.36D-11 BMatP= 6.52D-10
 IDIUse=1 WtCom= 1.00D+00 WtEn= 0.00D+00
 Coeff-Com: -0.372D-04-0.618D-05-0.123D-03 0.190D-02-0.906D-02 0.248D-01
 Coeff-Com:  0.135D-01-0.374D+00 0.134D+01
 Coeff:     -0.372D-04-0.618D-05-0.123D-03 0.190D-02-0.906D-02 0.248D-01
 Coeff:      0.135D-01-0.374D+00 0.134D+01
 Gap=     0.435 Goal=   None    Shift=    0.000
 Gap=     0.565 Goal=   None    Shift=    0.000
 RMSDP=6.92D-08 MaxDP=1.68D-06 DE=-4.73D-10 OVMax= 4.70D-06

 Cycle  10  Pass 1  IDiag  1:
 RMSU=  2.28D-08    CP:  9.67D-01  2.28D+00  1.46D+00  1.85D+00  1.84D+00
                    CP:  1.97D+00  1.63D+00  1.51D+00  1.57D+00
 FoFJK:  IHMeth= 1 ICntrl=     0 DoSepK=T KAlg= 1 I1Cent= 0 FoldK=F
 E= -40.8750674930765     Delta-E=       -0.000000000035 Rises=F Damp=F
 DIIS: error= 3.55D-07 at cycle  10 NSaved=  10.
 NSaved=10 IEnMin=10 EnMin= -40.8750674930765     IErMin=10 ErrMin= 3.55D-07
 ErrMax= 3.55D-07 EMaxC= 1.00D-01 BMatC= 5.22D-12 BMatP= 3.36D-11
 IDIUse=1 WtCom= 1.00D+00 WtEn= 0.00D+00
 Coeff-Com:  0.280D-04-0.241D-04 0.804D-05-0.376D-03 0.287D-02-0.122D-01
 Coeff-Com:  0.644D-02 0.136D+00-0.853D+00 0.172D+01
 Coeff:      0.280D-04-0.241D-04 0.804D-05-0.376D-03 0.287D-02-0.122D-01
 Coeff:      0.644D-02 0.136D+00-0.853D+00 0.172D+01
 Gap=     0.435 Goal=   None    Shift=    0.000
 Gap=     0.565 Goal=   None    Shift=    0.000
 RMSDP=3.43D-08 MaxDP=9.19D-07 DE=-3.50D-11 OVMax= 2.34D-06

 Cycle  11  Pass 1  IDiag  1:
 RMSU=  7.94D-09    CP:  9.67D-01  2.28D+00  1.46D+00  1.85D+00  1.84D+00
                    CP:  1.97D+00  1.63D+00  1.52D+00  1.84D+00  1.83D+00
 FoFJK:  IHMeth= 1 ICntrl=     0 DoSepK=T KAlg= 1 I1Cent= 0 FoldK=F
 E= -40.8750674930846     Delta-E=       -0.000000000008 Rises=F Damp=F
 DIIS: error= 9.42D-08 at cycle  11 NSaved=  11.
 NSaved=11 IEnMin=11 EnMin= -40.8750674930846     IErMin=11 ErrMin= 9.42D-08
 ErrMax= 9.42D-08 EMaxC= 1.00D-01 BMatC= 3.98D-13 BMatP= 5.22D-12
 IDIUse=1 WtCom= 1.00D+00 WtEn= 0.00D+00
 Coeff-Com: -0.727D-05 0.118D-04 0.994D-05-0.100D-03 0.779D-04 0.149D-02
 Coeff-Com: -0.490D-02-0.104D-02 0.149D+00-0.606D+00 0.146D+01
 Coeff:     -0.727D-05 0.118D-04 0.994D-05-0.100D-03 0.779D-04 0.149D-02
 Coeff:     -0.490D-02-0.104D-02 0.149D+00-0.606D+00 0.146D+01
 Gap=     0.435 Goal=   None    Shift=    0.000
 Gap=     0.565 Goal=   None    Shift=    0.000
 RMSDP=9.43D-09 MaxDP=3.18D-07 DE=-8.07D-12 OVMax= 6.39D-07

 SCF Done:  E(ULC-B+HF-LYP) =  -40.8750674931     A.U. after   11 cycles
             Convg  =    0.9430D-08             -V/T =  2.0048
 <Sx>= 0.0000 <Sy>= 0.0000 <Sz>= 0.5000 <S**2>= 0.7537 S= 0.5018
 <L.S>= 0.000000000000E+00
 KE= 4.067971365478D+01 PE=-1.212453288160D+02 EE= 2.609492036771D+01
 Annihilation of the first spin contaminant:
 S**2 before annihilation     0.7537,   after     0.7500
 Leave Link  502 at Wed Nov  3 01:48:27 2010, MaxMem=  786432000 cpu:     255.8
 (Enter /share/apps/G09A02/g09/l601.exe)
 Copying SCF densities to generalized density rwf, IOpCl= 1 IROHF=0.

 **********************************************************************

            Population analysis using the SCF density.

 **********************************************************************

 Alpha  occ. eigenvalues --  -10.14737  -0.85501  -0.56447  -0.55933  -0.55933
 Alpha  occ. eigenvalues --   -0.36519
 Alpha virt. eigenvalues --    0.06940   0.09151   0.09151   0.12435   0.17118
 Alpha virt. eigenvalues --    0.23344   0.23344   0.24591   0.37428   0.38074
 Alpha virt. eigenvalues --    0.38074   0.40309   0.40310   0.49530   0.60180
 Alpha virt. eigenvalues --    0.62931   0.62931   0.66580   0.66580   0.67198
 Alpha virt. eigenvalues --    0.74022   0.79720   0.82833   0.82833   0.94715
 Alpha virt. eigenvalues --    1.01565   1.01565   1.07144   1.16042   1.16042
 Alpha virt. eigenvalues --    1.22078   1.22078   1.31255   1.48985   1.48985
 Alpha virt. eigenvalues --    1.49939   1.68098   1.78727   1.78727   2.13038
 Alpha virt. eigenvalues --    2.15140   2.15140   2.48009   2.55915   2.61958
 Alpha virt. eigenvalues --    2.78708   2.78708   2.86314   3.05570   3.13067
 Alpha virt. eigenvalues --    3.13067   3.16718   3.20918   3.20918   3.58054
 Alpha virt. eigenvalues --    3.58054   3.72376   3.72376   3.93662   4.04237
 Alpha virt. eigenvalues --    4.27779   4.27779   4.35457   4.35457   4.39844
 Alpha virt. eigenvalues --    4.39844   4.46006   4.96500   5.35104   5.73411
 Alpha virt. eigenvalues --    5.73411   5.80148   7.15273   7.15274   7.31237
 Alpha virt. eigenvalues --    7.73072   7.73072  24.22845
  Beta  occ. eigenvalues --  -10.13313  -0.80905  -0.55951  -0.54872  -0.54872
  Beta virt. eigenvalues --    0.01632   0.07005   0.09012   0.09012   0.13502
  Beta virt. eigenvalues --    0.18990   0.23587   0.23587   0.25622   0.38106
  Beta virt. eigenvalues --    0.39225   0.39225   0.40304   0.40304   0.51183
  Beta virt. eigenvalues --    0.60918   0.63226   0.63226   0.67283   0.67283
  Beta virt. eigenvalues --    0.69483   0.75336   0.80721   0.82872   0.82873
  Beta virt. eigenvalues --    0.94679   1.02119   1.02119   1.07851   1.16103
  Beta virt. eigenvalues --    1.16103   1.22128   1.22129   1.32309   1.49515
  Beta virt. eigenvalues --    1.49515   1.52180   1.68160   1.83541   1.83541
  Beta virt. eigenvalues --    2.16143   2.16143   2.16278   2.48666   2.55933
  Beta virt. eigenvalues --    2.62440   2.80043   2.80043   2.91684   3.05971
  Beta virt. eigenvalues --    3.16014   3.16014   3.21231   3.24242   3.24242
  Beta virt. eigenvalues --    3.58285   3.58285   3.73275   3.73275   3.93985
  Beta virt. eigenvalues --    4.04597   4.27417   4.27417   4.36176   4.36176
  Beta virt. eigenvalues --    4.40032   4.40032   4.46656   4.96665   5.36051
  Beta virt. eigenvalues --    5.74005   5.74005   5.80309   7.21597   7.21598
  Beta virt. eigenvalues --    7.39266   7.74694   7.74694  24.24716
          Condensed to atoms (all electrons):
              1          2          3          4          5          6
     1  C    5.397926  -0.008307   0.401658   0.401656   0.401656  -0.013324
     2  H   -0.008307   0.581793  -0.000439  -0.000439  -0.000439   0.425052
     3  H    0.401658  -0.000439   0.443296  -0.020292  -0.020292  -0.000140
     4  H    0.401656  -0.000439  -0.020292   0.443298  -0.020291  -0.000140
     5  H    0.401656  -0.000439  -0.020292  -0.020291   0.443298  -0.000140
     6  H   -0.013324   0.425052  -0.000140  -0.000140  -0.000140   0.598830
 Mulliken atomic charges:
              1
     1  C   -0.581266
     2  H    0.002778
     3  H    0.196210
     4  H    0.196208
     5  H    0.196208
     6  H   -0.010138
 Sum of Mulliken atomic charges =   0.00000
 Mulliken charges with hydrogens summed into heavy atoms:
              1
     1  C    0.000000
 Sum of Mulliken charges with hydrogens summed into heavy atoms =   0.00000
          Atomic-Atomic Spin Densities.
              1          2          3          4          5          6
     1  C    1.065946  -0.004375   0.004636   0.004636   0.004636  -0.011545
     2  H   -0.004375  -0.015747  -0.000009  -0.000009  -0.000009   0.003657
     3  H    0.004636  -0.000009  -0.034218   0.002871   0.002871  -0.000070
     4  H    0.004636  -0.000009   0.002871  -0.034219   0.002871  -0.000070
     5  H    0.004636  -0.000009   0.002871   0.002871  -0.034219  -0.000070
     6  H   -0.011545   0.003657  -0.000070  -0.000070  -0.000070   0.032411
 Mulliken atomic spin densities:
              1
     1  C    1.063934
     2  H   -0.016492
     3  H   -0.023918
     4  H   -0.023920
     5  H   -0.023920
     6  H    0.024315
 Sum of Mulliken atomic spin densities =   1.00000
 Electronic spatial extent (au):  <R**2>=             97.8602
 Charge=              0.0000 electrons
 Dipole moment (field-independent basis, Debye):
    X=              0.0000    Y=              0.0000    Z=             -0.0955  Tot=              0.0955
 Quadrupole moment (field-independent basis, Debye-Ang):
   XX=             -9.4464   YY=             -9.4464   ZZ=            -11.1429
   XY=              0.0000   XZ=              0.0000   YZ=              0.0000
 Traceless Quadrupole moment (field-independent basis, Debye-Ang):
   XX=              0.5655   YY=              0.5655   ZZ=             -1.1310
   XY=              0.0000   XZ=              0.0000   YZ=              0.0000
 Octapole moment (field-independent basis, Debye-Ang**2):
  XXX=              0.9849  YYY=              0.0000  ZZZ=            -15.5079  XYY=             -0.9849
  XXY=              0.0000  XXZ=             -6.4104  XZZ=              0.0000  YZZ=              0.0000
  YYZ=             -6.4104  XYZ=              0.0000
 Hexadecapole moment (field-independent basis, Debye-Ang**3):
 XXXX=            -17.5611 YYYY=            -17.5612 ZZZZ=           -104.1675 XXXY=              0.0000
 XXXZ=             -0.0109 YYYX=              0.0000 YYYZ=              0.0000 ZZZX=              0.0000
 ZZZY=              0.0000 XXYY=             -5.8537 XXZZ=            -24.9263 YYZZ=            -24.9263
 XXYZ=              0.0000 YYXZ=              0.0109 ZZXY=              0.0000
 N-N= 1.359562730041D+01 E-N=-1.787412478815D+02  KE= 6.040944128436D+01
                          Isotropic Fermi Contact Couplings
        Atom                 a.u.       MegaHertz       Gauss      10(-4) cm-1
     1  C(13)              0.02912      32.73700      11.68137      10.91989
     2  H(1)              -0.00193      -8.62361      -3.07712      -2.87653
     3  H(1)              -0.01320     -59.02019     -21.05987     -19.68702
     4  H(1)              -0.01320     -59.02060     -21.06002     -19.68715
     5  H(1)              -0.01320     -59.02060     -21.06002     -19.68715
     6  H(1)               0.00909      40.64518      14.50321      13.55777
 --------------------------------------------------------
       Center         ----  Spin Dipole Couplings  ----
                      3XX-RR        3YY-RR        3ZZ-RR
 --------------------------------------------------------
     1   Atom       -0.593776     -0.593778      1.187554
     2   Atom       -0.015748     -0.015748      0.031496
     3   Atom        0.074536     -0.075311      0.000775
     4   Atom       -0.037850      0.037074      0.000775
     5   Atom       -0.037850      0.037074      0.000775
     6   Atom       -0.004282     -0.004282      0.008565
 --------------------------------------------------------
                        XY            XZ            YZ
 --------------------------------------------------------
     1   Atom        0.000000      0.000000      0.000000
     2   Atom        0.000000      0.000000      0.000000
     3   Atom        0.000000     -0.000676      0.000000
     4   Atom        0.064886      0.000338      0.000585
     5   Atom       -0.064886      0.000338     -0.000585
     6   Atom        0.000000      0.000000      0.000000
 --------------------------------------------------------


 ---------------------------------------------------------------------------------
              Anisotropic Spin Dipole Couplings in Principal Axis System
 ---------------------------------------------------------------------------------

       Atom             a.u.   MegaHertz   Gauss  10(-4) cm-1        Axes

              Baa    -0.5938   -79.679   -28.432   -26.578  0.0000  1.0000  0.0000
     1 C(13)  Bbb    -0.5938   -79.679   -28.431   -26.578  1.0000  0.0000  0.0000
              Bcc     1.1876   159.358    56.863    53.156  0.0000  0.0000  1.0000
 
              Baa    -0.0157    -8.402    -2.998    -2.803  1.0000  0.0000  0.0000
     2 H(1)   Bbb    -0.0157    -8.402    -2.998    -2.803  0.0000  1.0000  0.0000
              Bcc     0.0315    16.805     5.996     5.605  0.0000  0.0000  1.0000
 
              Baa    -0.0753   -40.183   -14.338   -13.403  0.0000  1.0000  0.0000
     3 H(1)   Bbb     0.0008     0.410     0.146     0.137  0.0092  0.0000  1.0000
              Bcc     0.0745    39.772    14.192    13.267  1.0000  0.0000 -0.0092
 
              Baa    -0.0753   -40.183   -14.338   -13.403  0.8660 -0.5000  0.0000
     4 H(1)   Bbb     0.0008     0.410     0.146     0.137 -0.0046 -0.0079  1.0000
              Bcc     0.0745    39.772    14.192    13.267  0.5000  0.8660  0.0092
 
              Baa    -0.0753   -40.183   -14.338   -13.403  0.8660  0.5000  0.0000
     5 H(1)   Bbb     0.0008     0.410     0.146     0.137 -0.0046  0.0079  1.0000
              Bcc     0.0745    39.772    14.192    13.267 -0.5000  0.8660 -0.0092
 
              Baa    -0.0043    -2.285    -0.815    -0.762  1.0000  0.0000  0.0000
     6 H(1)   Bbb    -0.0043    -2.285    -0.815    -0.762  0.0000  1.0000  0.0000
              Bcc     0.0086     4.570     1.631     1.524  0.0000  0.0000  1.0000
 

 ---------------------------------------------------------------------------------

 No NMR shielding tensors so no spin-rotation constants.
 Leave Link  601 at Wed Nov  3 01:48:28 2010, MaxMem=  786432000 cpu:       4.1
 (Enter /share/apps/G09A02/g09/l9999.exe)
 1\1\GINC-COMPUTE-0-7\SP\ULC-BLYP\6-311+G(3df,2p)\C1H5(2)\WENXINZY\03-N
 ov-2010\0\\#p lc-blyp/6-311+g(3df,2p) nosymm scf=tight\\22 H2+CH3\\0,2
 \C\H,1,2.5753078\H,1,1.0792777,2,90.3427604\H,1,1.0792777,2,90.3427604
 ,3,120.,0\H,1,1.0792777,2,90.3427604,3,-120.,0\H,2,0.7448769,1,180.,3,
 0.,0\\Version=EM64L-G09RevA.02\HF=-40.8750675\S2=0.753701\S2-1=0.\S2A=
 0.750008\RMSD=9.430e-09\Dipole=0.0000011,0.,-0.0375709\Quadrupole=0.42
 04375,0.4204356,-0.8408731,0.,0.0000025,0.\PG=C03V [C3(H1H1C1),3SGV(H1
 )]\\@


 THE REAL VOYAGE OF DISCOVERY CONSISTS NOT IN SEEKING NEW LANDSCAPES 
 BUT IN HAVING NEW EYES.
                                                    -- MARCEL PROUST
 Job cpu time:  0 days  0 hours  4 minutes 30.8 seconds.
 File lengths (MBytes):  RWF=      9 Int=      0 D2E=      0 Chk=      1 Scr=      1
 Normal termination of Gaussian 09 at Wed Nov  3 01:48:28 2010.
