  MPI-parallelism will be employed.
------------------------------------------------------------
          Invoking FHI-aims ...
          Version 081912
          Git rev. (modified): da8b1f0 Change by Igor:
          Compiled on 2012/08/22 at 21:40:32 on host theobook58.

          When using FHI-aims, please cite the following reference:

          Volker Blum, Ralf Gehrke, Felix Hanke, Paula Havu,
          Ville Havu, Xinguo Ren, Karsten Reuter, and Matthias Scheffler,
          'Ab Initio Molecular Simulations with Numeric Atom-Centered Orbitals: FHI-aims',
          Computer Physics Communications 180, 2175-2196 (2009)

------------------------------------------------------------

  Date     :  20120920, Time     :  210645.389
  Time zero on CPU 1             :   0.160000000000000E-01  s.
  Internal wall clock time zero  :           117407205.389  s.

  Using        2 parallel tasks.
  Task        0 on host theobook58 reporting.
  Task        1 on host theobook58 reporting.

  Performing system and environment tests:
  | Environment variable OMP_NUM_THREADS correctly set to 1.
  | Checking for scalapack...
  | No scalapack compiled in.

  Obtaining array dimensions for all initial allocations:
  
  -----------------------------------------------------------------------
  Parsing control.in (first pass over file, find array dimensions only).
  The contents of control.in will be repeated verbatim below
  unless switched off by setting 'verbatim_writeout .false.' .
  in the first line of control.in .
  -----------------------------------------------------------------------
  
  xc                      pbe
  total_energy_method     rpa
  relativistic            none
  occupation_type         integer 0.0001
  mixer                   pulay
  n_max_pulay             10
  charge_mix_param        0.6
  sc_accuracy_rho         1E-6
  sc_accuracy_eev         1E-4
  sc_accuracy_etot        1E-6
  sc_iter_limit           200
  rpa_frozen_core         1
  charge                  0
  ################################################################################
  #
  #  FHI-aims code project
  # Igor Ying Zhang and Xinguo Ren, Fritz Haber Institute Berlin, 2012
  #
  #  Suggested "cc-pVDZ" defaults for N atom (to be pasted into control.in file)
  #
  ################################################################################
    species        N
  #     global species definitions
      nucleus             7
      mass                14.0067
  #
      l_hartree           6
  #
      cut_pot             4.0  2.0  1.0
      basis_dep_cutoff    0e-0
  #
      radial_base         35 7.0
      radial_multiplier   6
      angular_grids       specified
        division   0.1841   50
        division   0.3514  110
        division   0.5126  194
        division   0.6292  302
        division   0.6939  434
  #      division   0.7396  590
  #      division   0.7632  770
  #      division   0.8122  974
  #      division   1.1604 1202
  #      outer_grid  974
        outer_grid  434
  ################################################################################
  #
  #  Definition of "minimal" basis
  #
  ################################################################################
  #     valence basis states
      valence      2  s   2.
      valence      2  p   3.
  #     ion occupancy
      ion_occ      2  s   1.
      ion_occ      2  p   2.
  ################################################################################
  #
  #   For exact comparison with all GTO-based codes, one or more of
  #   the following flags are needed:
  #
      include_min_basis   .false.
      pure_gauss          .true.
  #
  
  # N cc-pVDZ
   gaussian 0 8
      9046.0000000            0.0007000
      1357.0000000            0.0053890
       309.3000000            0.0274060
        87.7300000            0.1032070
        28.5600000            0.2787230
        10.2100000            0.4485400
         3.8380000            0.2782380
         0.7466000            0.0154400
   gaussian 0 8
      9046.0000000           -0.0001530
      1357.0000000           -0.0012080
       309.3000000           -0.0059920
        87.7300000           -0.0245440
        28.5600000           -0.0674590
        10.2100000           -0.1580780
         3.8380000           -0.1218310
         0.7466000            0.5490030
   gaussian 0 1 0.2248000
   gaussian 1 3
        13.5500000            0.0399190
         2.9170000            0.2171690
         0.7973000            0.5103190
   gaussian 1 1 0.2185000
   gaussian 2 1 0.8170000
  ################################################################################
  #
  #  FHI-aims code project
  # Igor Ying Zhang and Xinguo Ren, Fritz Haber Institute Berlin, 2012
  #
  #  Suggested "cc-pVDZ" defaults for H atom (to be pasted into control.in file)
  #
  ################################################################################
    species        H
  #     global species definitions
      nucleus             1
      mass                1.00794
  #
      l_hartree           6
  #
      cut_pot             4.0  2.0  1.0
      basis_dep_cutoff    0e-0
  #
      radial_base         24 7.0
      radial_multiplier   6
      angular_grids       specified
        division   0.1930   50
        division   0.3175  110
        division   0.4293  194
        division   0.5066  302
        division   0.5626  434
  #      division   0.5922  590
  #      division   0.6227  974
  #      division   0.6868 1202
  #      outer_grid  770
        outer_grid  434
  ################################################################################
  #
  #  Definition of "minimal" basis
  #
  ################################################################################
  #     valence basis states
      valence      1  s   1.
  #     ion occupancy
      ion_occ      1  s   0.5
  ################################################################################
  #
  #   For exact comparison with all GTO-based codes, one or more of
  #   the following flags are needed:
  #
      include_min_basis   .false.
      pure_gauss          .true.
  #
  
  # H cc-pVDZ
   gaussian 0 3
        13.0100000            0.0196850
         1.9620000            0.1379770
         0.4446000            0.4781480
   gaussian 0 1 0.1220000
   gaussian 1 1 0.7270000
  
  -----------------------------------------------------------------------
  Completed first pass over input file control.in .
  -----------------------------------------------------------------------
  
  
  -----------------------------------------------------------------------
  Parsing geometry.in (first pass over file, find array dimensions only).
  The contents of geometry.in will be repeated verbatim below
  unless switched off by setting 'verbatim_writeout .false.' .
  in the first line of geometry.in .
  -----------------------------------------------------------------------
  
  atom      0.00000000      0.00000000     -0.28853302    N
  atom     -0.46806698      0.81071579      0.09617767    H
  atom     -0.46806698     -0.81071579      0.09617767    H
  atom      0.93613396      0.00000000      0.09617767    H
  
  -----------------------------------------------------------------------
  Completed first pass over input file geometry.in .
  -----------------------------------------------------------------------
  

  Basic array size parameters: 
  | Number of species                 :        2
  | Number of atoms                   :        4
  | Max. basis fn. angular momentum   :        2
  | Max. atomic/ionic basis occupied n:        2
  | Max. number of basis fn. types    :        1
  | Max. radial fns per species/type  :        7
  | Max. logarithmic grid size        :     1290
  | Max. radial integration grid size :      215
  | Max. angular integration grid size:      434
  | Max. angular grid division number :        8
  | Radial grid for Hartree potential :     1290
  | Number of spin channels           :        1

------------------------------------------------------------
          Reading file control.in.
------------------------------------------------------------
  XC: Using PBE gradient-corrected functionals.
  RPA correlation energy calculation will be started after the DFT/HF calculation.
  Non-relativistic treatment of kinetic energy.
  Occupation type: Integer occupation.
  Using pulay charge density mixing.
  Pulay mixing - number of memorized iterations:   10
  Charge density mixing - mixing parameter:     0.6000
  Convergence accuracy of self-consistent charge density: 0.1000E-05
  Convergence accuracy of sum of eigenvalues: 0.1000E-03
  Convergence accuracy of total energy: 0.1000E-05
  Maximum number of s.-c. iterations  :   200
  Core electrons are frozen in the RPA calculation :     1
  Charge =   0.000000E+00: Neutral system requested explicitly.

  Reading configuration options for species N                   .
  | Found nuclear charge :   7.0000
  | Found atomic mass :    14.006700000000000      amu
  | Found l_max for Hartree potential  :   6
  | Found cutoff potl. onset [A], width [A], scale factor :    4.00000    2.00000    1.00000
  | Threshold for basis-dependent cutoff potential is   0.000000E+00
  | Found data for basic radial integration grid :    35 points, outermost radius =    7.000 A
  | Found multiplier for basic radial grid :   6
  | Found angular grid specification: user-specified.
  | Specified grid contains     6 separate shells.
  | Check grid settings after all constraints further below.
  | Found free-atom valence shell :  2 s   2.000
  | Found free-atom valence shell :  2 p   3.000
  | No ionic wave fns used. Skipping ion_occ.
  | No ionic wave fns used. Skipping ion_occ.
  | Found request to include minimal basis fns. :     F
  | Found request to include pure gaussian fns. :     T
  | Found contracted cartesian Gaussian basis function :  L = 0 ,   8 elementary Gaussians:
  |   alpha = 0.904600E+04 weight = 0.700000E-03
  |   alpha = 0.135700E+04 weight = 0.538900E-02
  |   alpha = 0.309300E+03 weight = 0.274060E-01
  |   alpha = 0.877300E+02 weight = 0.103207E+00
  |   alpha = 0.285600E+02 weight = 0.278723E+00
  |   alpha = 0.102100E+02 weight = 0.448540E+00
  |   alpha = 0.383800E+01 weight = 0.278238E+00
  |   alpha = 0.746600E+00 weight = 0.154400E-01
  |   In terms of angular momentum, this radial function adds: 
  |     1 s-type basis function
  | Found contracted cartesian Gaussian basis function :  L = 0 ,   8 elementary Gaussians:
  |   alpha = 0.904600E+04 weight = -.153000E-03
  |   alpha = 0.135700E+04 weight = -.120800E-02
  |   alpha = 0.309300E+03 weight = -.599200E-02
  |   alpha = 0.877300E+02 weight = -.245440E-01
  |   alpha = 0.285600E+02 weight = -.674590E-01
  |   alpha = 0.102100E+02 weight = -.158078E+00
  |   alpha = 0.383800E+01 weight = -.121831E+00
  |   alpha = 0.746600E+00 weight = 0.549003E+00
  |   In terms of angular momentum, this radial function adds: 
  |     1 s-type basis function
  | Found primitive cartesian Gaussian basis function :  0 0.224800E+00
  |   In terms of angular momentum, this radial function adds: 
  |     1 s-type basis function
  | Found contracted cartesian Gaussian basis function :  L = 1 ,   3 elementary Gaussians:
  |   alpha = 0.135500E+02 weight = 0.399190E-01
  |   alpha = 0.291700E+01 weight = 0.217169E+00
  |   alpha = 0.797300E+00 weight = 0.510319E+00
  |   In terms of angular momentum, this radial function adds: 
  |     3 p-type basis functions
  | Found primitive cartesian Gaussian basis function :  1 0.218500E+00
  |   In terms of angular momentum, this radial function adds: 
  |     3 p-type basis functions
  | Found primitive cartesian Gaussian basis function :  2 0.817000E+00
  |   In terms of angular momentum, this radial function adds: 
  |     5 d-type basis functions
  Species N                   : Missing cutoff potential type.
  Defaulting to exp(1/x)/(1-x)^2 type cutoff potential.
  Species N : No 'logarithmic' tag. Using default grid for free atom:
  | Default logarithmic grid data [bohr] : 0.1000E-03 0.1000E+03 0.1012E+01
  Species N : On-site basis accuracy parameter (for Gram-Schmidt orthonormalisation) not specified.
  Using default value basis_acc =  0.1000000E-03.
  Species N                   : Using default innermost maximum threshold i_radial=  2 for radial functions.
  Species N                   : Default cutoff onset for free atom density etc. is infinite
  since the product basis is used (hybrid functionals, Hartree-Fock, GW etc.).
  Species N                   : Basic radial grid will be enhanced according to radial_multiplier =   6, to contain   215 grid points.

  Reading configuration options for species H                   .
  | Found nuclear charge :   1.0000
  | Found atomic mass :    1.0079400000000001      amu
  | Found l_max for Hartree potential  :   6
  | Found cutoff potl. onset [A], width [A], scale factor :    4.00000    2.00000    1.00000
  | Threshold for basis-dependent cutoff potential is   0.000000E+00
  | Found data for basic radial integration grid :    24 points, outermost radius =    7.000 A
  | Found multiplier for basic radial grid :   6
  | Found angular grid specification: user-specified.
  | Specified grid contains     6 separate shells.
  | Check grid settings after all constraints further below.
  | Found free-atom valence shell :  1 s   1.000
  | No ionic wave fns used. Skipping ion_occ.
  | Found request to include minimal basis fns. :     F
  | Found request to include pure gaussian fns. :     T
  | Found contracted cartesian Gaussian basis function :  L = 0 ,   3 elementary Gaussians:
  |   alpha = 0.130100E+02 weight = 0.196850E-01
  |   alpha = 0.196200E+01 weight = 0.137977E+00
  |   alpha = 0.444600E+00 weight = 0.478148E+00
  |   In terms of angular momentum, this radial function adds: 
  |     1 s-type basis function
  | Found primitive cartesian Gaussian basis function :  0 0.122000E+00
  |   In terms of angular momentum, this radial function adds: 
  |     1 s-type basis function
  | Found primitive cartesian Gaussian basis function :  1 0.727000E+00
  |   In terms of angular momentum, this radial function adds: 
  |     3 p-type basis functions
  Species H                   : Missing cutoff potential type.
  Defaulting to exp(1/x)/(1-x)^2 type cutoff potential.
  Species H : No 'logarithmic' tag. Using default grid for free atom:
  | Default logarithmic grid data [bohr] : 0.1000E-03 0.1000E+03 0.1012E+01
  Species H : On-site basis accuracy parameter (for Gram-Schmidt orthonormalisation) not specified.
  Using default value basis_acc =  0.1000000E-03.
  Species H                   : Using default innermost maximum threshold i_radial=  2 for radial functions.
  Species H                   : Default cutoff onset for free atom density etc. is infinite
  since the product basis is used (hybrid functionals, Hartree-Fock, GW etc.).
  Species H                   : Basic radial grid will be enhanced according to radial_multiplier =   6, to contain   149 grid points.

  Finished reading input file 'control.in'. Consistency checks are next.

  Species N: Using default value for prodbas_acc =   1.000000E-02.
  Species N: Using default value max_l_prodbas =     5.
  Species H: Using default value for prodbas_acc =   1.000000E-02.
  Species H: Using default value max_l_prodbas =     5.
  Target number of points in a grid batch is not set. Defaulting to  100
  Method for grid partitioning is not set. Defaulting to parallel hash+maxmin partitioning.
  Batch size limit is not set. Defaulting to    200
  By default, will store active basis functions for each batch.
  If in need of memory, prune_basis_once .false. can be used to disable this option.
  communication_type for Hartree potential was not specified.
  Defaulting to calc_hartree .
  Pulay mixer: Number of initial linear mixing iterations not set.
  Defaulting to    0 iterations.
  Work space size for distributed Hartree potential not set.
  Defaulting to   0.200000E+03 MB.
  Algorithm-dependent basis array size parameters:
  | n_max_pulay                         :       10
  Calculation of forces was not defined in control.in. No forces will be calculated.
  Geometry relaxation not requested: no relaxation will be performed.
  No accuracy limit for integral partition fn. given. Defaulting to 0.1000E-14.
  No threshold value for u(r) in integrations given. Defaulting to 0.1000E-05.
  No accuracy for occupation numbers given. Defaulting to 0.1000E-07.
  No threshold value for occupation numbers given. Defaulting to 0.0000E+00.
  No accuracy for fermi level given. Defaulting to 0.1000E-19.
  Maximum # of iterations to find E_F not set. Defaulting to  200.
  Preferred method for the eigenvalue solver ('KS_method') not specified in 'control.in'.
  Calling blacs routine to test compilation state
  The best choice would be 'elpa', but your version of FHI-aims is compiled without scalapack support.
  Defaulting to 'lapack_fast' instead (serial solution, time will not improve with more CPUs).
  Will not use alltoall communication since running on < 1024 CPUs.
  Threshold for basis singularities not set.
  Default threshold for basis singularities: 0.1000E-04
  partition_type (choice of integration weights) for integrals was not specified.
  | Using a version of the partition function of Stratmann and coworkers ('stratmann_smoother').
  | At each grid point, the set of atoms used to build the partition table is smoothly restricted to
  | only those atoms whose free-atom density would be non-zero at that grid point.
  Partitioning for Hartree potential was not defined. Using partition_type for integrals.
  | Adjusted default value of keyword multip_moments_threshold to:       0.10000000E-11
  | This value may affect high angular momentum components of the Hartree potential in periodic systems.
  Spin handling was not defined in control.in. Defaulting to unpolarized case.
  Threshold for auxiliary basis singularities not set.
  Default threshold for auxiliary basis singularities: 0.1000E-04
  * Doing correlated calculations, so all empty single-particle states will be included.
  No q(lm)/r^(l+1) cutoff set for long-range Hartree potential.
  | Using default value of  0.100000E-09 .
  | Verify using the multipole_threshold keyword.
  Defaulting to new monopole extrapolation.
  Density update method: automatic selection selected.
  Default to 1D ("use_logsbt") integrations for auxiliary 2-center integrals.
  Default onset of logarithmic r-grid for SBT is-38.000000000000
  Default onset of logarithmic k-grid for SBT is-25.000000000000
  Default range of logarithmic r- and k-grid for SBT is 45.000000000000
  Default number of logarithmic r- and k-grid for SBT is 16384
------------------------------------------------------------


------------------------------------------------------------
          Reading geometry description geometry.in.
------------------------------------------------------------
  Input structure read successfully.
  The structure contains        4 atoms,  and a total of         10.000 electrons.

  Input geometry:
  | No unit cell requested.
  | Atomic structure:
  |       Atom                x [A]            y [A]            z [A]
  |    1: Species N          0.000000         0.000000        -0.288533
  |    2: Species H         -0.468067         0.810716         0.096178
  |    3: Species H         -0.468067        -0.810716         0.096178
  |    4: Species H          0.936134         0.000000         0.096178
  |
  | Closest distance between atoms is    1.012 AA.

  Structure-dependent array size parameters: 
  | Maximum number of distinct radial functions  :        9
  | Maximum number of basis functions            :       29
  | Number of Kohn-Sham states (occupied + empty):     4005
------------------------------------------------------------

------------------------------------------------------------
          Preparing all fixed parts of the calculation.
------------------------------------------------------------
  Determining machine precision:
    2.22507385850720138E-308
  Setting up grids for atomic and cluster calculations.

  Creating wave function, potential, and density for free atoms.

  Species: N

  List of occupied orbitals and eigenvalues:
    n    l              occ      energy [Ha]    energy [eV]
    1    0           2.0000       -14.129248      -384.4764
    2    0           2.0000        -0.681982       -18.5577
    2    1           3.0000        -0.260725        -7.0947


  Species: H

  List of occupied orbitals and eigenvalues:
    n    l              occ      energy [Ha]    energy [eV]
    1    0           1.0000        -0.238600        -6.4926

  Creating fixed part of basis set: Ionic, confined, hydrogenic.

  N                    Gaussian:

  List of cartesian Gaussian basis orbitals: 
    L    l
    0    0
    0    0
    0    0
    1    1
    1    1
    2    2


  H                    Gaussian:

  List of cartesian Gaussian basis orbitals: 
    L    l
    0    0
    0    0
    1    1


  Adding cutoff potential to free-atom effective potential.
  Creating atomic-like basis functions for current effective potential.
  Assembling full basis from fixed parts.
  | Species N : gaussian orbital   0 s accepted.
  | Species N : gaussian orbital   0 s accepted.
  | Species N : gaussian orbital   0 s accepted.
  | Species N : gaussian orbital   1 p accepted.
  | Species N : gaussian orbital   1 p accepted.
  | Species N : gaussian orbital   2 d accepted.
  | Species H : gaussian orbital   0 s accepted.
  | Species H : gaussian orbital   0 s accepted.
  | Species H : gaussian orbital   1 p accepted.

  * You requested     4005 Kohn-Sham states in the calculation,
  * but there are only       29 available basis states.
  * Reducing total number of  Kohn-Sham states to       29.


  Basis size parameters after reduction:
  | Total number of radial functions:        9
  | Total number of basis functions :       29

  Preparing densities etc. for the partition functions (integrals / Hartree potential).

  Preparations completed.
  max(cpu_time)          :      0.204 s.
  Wall clock time (cpu1) :      0.222 s.
------------------------------------------------------------

------------------------------------------------------------
          Begin self-consistency loop: Initialization.

          Date     :  20120920, Time     :  210645.617
------------------------------------------------------------

  Initializing index lists of integration centers etc. from given atomic structure:
  | Number of centers in hartree potential         :         4
  | Number of centers in hartree multipole         :         4
  | Number of centers in electron density summation:         4
  | Number of centers in basis integrals           :         4
  | Number of centers in integrals                 :         4
  Partitioning the integration grid into batches with parallel hashing+maxmin method.
  | Number of batches:     1815
  | Maximal batch size:     196
  | Minimal batch size:      88
  | Average batch size:     105.483
  | Standard deviation of batch sizes:      31.503

  Integration load balanced across     2 MPI tasks.
  Work distribution over tasks is as follows:
  Task     0 has      95660 integration points.
  Task     1 has      95792 integration points.
  Initializing partition tables, free-atom densities, potentials, etc.
  across the integration grid (initialize_grid_storage).
  | Net number of integration points:   191452
  | of which are non-zero points    :   161780
  Obtaining max. number of non-zero basis functions in each batch (get_n_compute_maxes).
  | Maximal number of non-zero basis functions:       29 in task     0
  | Maximal number of non-zero basis functions:       29 in task     1
  Selecting the method for density update.
  Loop over occupied states selected for charge density update.
  Integrating Hamiltonian matrix: batch-based integration.
  Time summed over all CPUs for integration: real work        0.902 s, elapsed        0.919 s
  Integrating overlap matrix.
  Time summed over all CPUs for integration: real work        0.291 s, elapsed        0.292 s

  Updating Kohn-Sham eigenvalues, eigenvectors, occupation numbers, and Fermi level.
  Solving generalized eigenproblem
  Updating Kohn-Sham eigenvalues and eigenfunctions.
  Transforming overlap matrix and checking for singularities.
  Overlap matrix is nonsingular:
  | Lowest eigenvalue:  0.304274E-01
  Solving real generalised eigenvalue problem by standard LAPACK (fast)
  Determining occupation numbers for Kohn-Sham eigenstates.
  | Chemical potential (Fermi level) in eV                 : -.62282344E+01
  | Error in electron count due to remaining E_F inaccuracy: 0.00000000E+00
  | Maximum occupation number of highest empty state:  0.00E+00

  Writing Kohn-Sham eigenvalues.

  State    Occupation    Eigenvalue [Ha]    Eigenvalue [eV]
      1       2.00000         -14.266629         -388.21472
      2       2.00000          -0.978729          -26.63257
      3       2.00000          -0.593001          -16.13639
      4       2.00000          -0.593001          -16.13638
      5       2.00000          -0.420456          -11.44119
      6       0.00000          -0.037311           -1.01528
      7       0.00000           0.030076            0.81841
      8       0.00000           0.030076            0.81842
      9       0.00000           0.360347            9.80554
     10       0.00000           0.360347            9.80554
     11       0.00000           0.466690           12.69928
     12       0.00000           0.548275           14.91933
     13       0.00000           0.636765           17.32726
     14       0.00000           0.636765           17.32727
     15       0.00000           0.876941           23.86277
     16       0.00000           0.876941           23.86279
     17       0.00000           0.952254           25.91215
     18       0.00000           1.326030           36.08312
     19       0.00000           1.452717           39.53045
     20       0.00000           1.516372           41.26257
     21       0.00000           1.516372           41.26258
     22       0.00000           1.755760           47.77667
     23       0.00000           1.755761           47.77669
     24       0.00000           2.012365           54.75924
     25       0.00000           2.245074           61.09157
     26       0.00000           2.245075           61.09160
     27       0.00000           2.372267           64.55267
     28       0.00000           2.675647           72.80806
     29       0.00000           2.675647           72.80807

  Highest occupied state (VBM) at    -11.44119164 eV
  | Occupation number:      2.00000000

  Lowest unoccupied state (CBM) at    -1.01527725 eV
  | Occupation number:      0.00000000

  Overall HOMO-LUMO gap:     10.42591438 eV.
  Calculating total energy contributions from superposition of free atom densities.

  Total energy components:
  | Sum of eigenvalues            :         -33.70363249 Ha        -917.12250274 eV
  | XC energy correction          :          -7.66422284 Ha        -208.55411464 eV
  | XC potential correction       :           9.84930616 Ha         268.01325689 eV
  | Free-atom electrostatic energy:         -25.07903808 Ha        -682.43534817 eV
  | Hartree energy correction     :          -0.00000000 Ha          -0.00000000 eV
  | Entropy correction            :          -0.00000000 Ha          -0.00000000 eV
  | ---------------------------
  | Total energy                  :         -56.59758726 Ha       -1540.09870865 eV
  | Total energy, T -> 0          :         -56.59758726 Ha       -1540.09870865 eV  <-- only rely on this value for actual (periodic) metals
  | Electronic free energy        :         -56.59758726 Ha       -1540.09870865 eV

  Derived energy quantities:
  | Kinetic energy                :          55.47217810 Ha        1509.47476727 eV
  | Electrostatic energy          :        -104.40554251 Ha       -2841.01936128 eV
  | Energy correction for multipole
  | error in Hartree potential    :           0.00000000 Ha           0.00000000 eV
  | Sum of eigenvalues per atom                           :        -229.28062568 eV
  | Total energy (T->0) per atom                          :        -385.02467716 eV  <-- only rely on this value for actual (periodic) metals
  | Electronic free energy per atom                       :        -385.02467716 eV
  Initialize hartree_potential_storage
  Max. number of atoms included in rho_multipole:            4

  End scf initialization - timings             :  max(cpu_time)    wall_clock(cpu1)
  | Time for scf. initialization               :        1.288 s           1.287 s
  | Boundary condition initialization          :        0.000 s           0.000 s
  | Integration                                :        0.608 s           0.606 s
  | Solution of K.-S. eqns.                    :        0.004 s           0.002 s
  | Grid partitioning                          :        0.232 s           0.231 s
  | Preloading free-atom quantities on grid    :        0.096 s           0.095 s
  | Free-atom superposition energy             :        0.168 s           0.168 s
  | Total energy evaluation                    :        0.000 s           0.001 s
------------------------------------------------------------

------------------------------------------------------------
          Begin self-consistency iteration #    1

  Date     :  20120920, Time     :  210646.904
------------------------------------------------------------
  Evaluating new KS density.
  Integration grid: deviation in total charge (<rho> - N_e) =   3.552714E-15
  Pulay mixing of updated and previous charge densities.

  Evaluating partitioned Hartree potential by multipole expansion.
  | Analytical far-field extrapolation by fixed multipoles:
  | Hartree multipole sum: apparent total charge =  -0.116463E-06
  Summing up the Hartree potential.
  Time summed over all CPUs for potential: real work        0.945 s, elapsed        0.946 s
  | RMS charge density error from multipole expansion :   0.367121E-02

  Integrating Hamiltonian matrix: batch-based integration.
  Time summed over all CPUs for integration: real work        0.891 s, elapsed        0.894 s

  Updating Kohn-Sham eigenvalues, eigenvectors, occupation numbers, and Fermi level.
  Solving generalized eigenproblem
  Updating Kohn-Sham eigenvalues and eigenfunctions.
  Solving real generalised eigenvalue problem by standard LAPACK (fast)
  Determining occupation numbers for Kohn-Sham eigenstates.
  | Chemical potential (Fermi level) in eV                 : -.15598166E+01
  | Error in electron count due to remaining E_F inaccuracy: 0.00000000E+00
  | Maximum occupation number of highest empty state:  0.00E+00

  Writing Kohn-Sham eigenvalues.

  State    Occupation    Eigenvalue [Ha]    Eigenvalue [eV]
      1       2.00000         -13.748603         -374.11853
      2       2.00000          -0.729213          -19.84290
      3       2.00000          -0.377235          -10.26508
      4       2.00000          -0.377235          -10.26507
      5       2.00000          -0.157860           -4.29559
      6       0.00000           0.043216            1.17595
      7       0.00000           0.127789            3.47732
      8       0.00000           0.127789            3.47732
      9       0.00000           0.472671           12.86204
     10       0.00000           0.472671           12.86204
     11       0.00000           0.597832           16.26783
     12       0.00000           0.743331           20.22707
     13       0.00000           0.811070           22.07034
     14       0.00000           0.811071           22.07035
     15       0.00000           1.023854           27.86048
     16       0.00000           1.023854           27.86049
     17       0.00000           1.116599           30.38421
     18       0.00000           1.429039           38.88613
     19       0.00000           1.602157           43.59691
     20       0.00000           1.622665           44.15496
     21       0.00000           1.622665           44.15497
     22       0.00000           1.937125           52.71186
     23       0.00000           1.937126           52.71189
     24       0.00000           2.183252           59.40930
     25       0.00000           2.448996           66.64058
     26       0.00000           2.448997           66.64060
     27       0.00000           2.559221           69.63994
     28       0.00000           2.899754           78.90633
     29       0.00000           2.899755           78.90634

  Highest occupied state (VBM) at     -4.29558808 eV
  | Occupation number:      2.00000000

  Lowest unoccupied state (CBM) at     1.17595478 eV
  | Occupation number:      0.00000000

  Overall HOMO-LUMO gap:      5.47154286 eV.

  Total energy components:
  | Sum of eigenvalues            :         -30.78029130 Ha        -837.57434165 eV
  | XC energy correction          :          -8.02824704 Ha        -218.45971694 eV
  | XC potential correction       :          10.32482618 Ha         280.95281501 eV
  | Free-atom electrostatic energy:         -25.07903808 Ha        -682.43534817 eV
  | Hartree energy correction     :          -2.94608395 Ha         -80.16702318 eV
  | Entropy correction            :          -0.00000000 Ha          -0.00000000 eV
  | ---------------------------
  | Total energy                  :         -56.50883419 Ha       -1537.68361493 eV
  | Total energy, T -> 0          :         -56.50883419 Ha       -1537.68361493 eV  <-- only rely on this value for actual (periodic) metals
  | Electronic free energy        :         -56.50883419 Ha       -1537.68361493 eV

  Derived energy quantities:
  | Kinetic energy                :          57.04783144 Ha        1552.35047630 eV
  | Electrostatic energy          :        -105.52841860 Ha       -2871.57437429 eV
  | Energy correction for multipole
  | error in Hartree potential    :          -0.00534040 Ha          -0.14531979 eV
  | Sum of eigenvalues per atom                           :        -209.39358541 eV
  | Total energy (T->0) per atom                          :        -384.42090373 eV  <-- only rely on this value for actual (periodic) metals
  | Electronic free energy per atom                       :        -384.42090373 eV

  Self-consistency convergence accuracy:
  | Change of charge density      : 0.3376E+00
  | Change of sum of eigenvalues  : 0.7955E+02 eV
  | Change of total energy        : 0.2415E+01 eV

  End self-consistency iteration #     1       :  max(cpu_time)    wall_clock(cpu1)
  | Time for this iteration                    :        1.248 s           1.249 s
  | Charge density update                      :        0.308 s           0.305 s
  | Density mixing                             :        0.008 s           0.008 s
  | Hartree multipole update                   :        0.012 s           0.013 s
  | Hartree multipole summation                :        0.472 s           0.474 s
  | Integration                                :        0.448 s           0.447 s
  | Solution of K.-S. eqns.                    :        0.000 s           0.001 s
  | Total energy evaluation                    :        0.000 s           0.001 s
------------------------------------------------------------

------------------------------------------------------------
          Begin self-consistency iteration #    2

  Date     :  20120920, Time     :  210648.153
------------------------------------------------------------
  Evaluating new KS density.
  Integration grid: deviation in total charge (<rho> - N_e) =   5.329071E-15
  Pulay mixing of updated and previous charge densities.

  Evaluating partitioned Hartree potential by multipole expansion.
  | Analytical far-field extrapolation by fixed multipoles:
  | Hartree multipole sum: apparent total charge =  -0.843448E-07
  Summing up the Hartree potential.
  Time summed over all CPUs for potential: real work        0.950 s, elapsed        0.951 s
  | RMS charge density error from multipole expansion :   0.397521E-02

  Integrating Hamiltonian matrix: batch-based integration.
  Time summed over all CPUs for integration: real work        0.886 s, elapsed        0.889 s

  Updating Kohn-Sham eigenvalues, eigenvectors, occupation numbers, and Fermi level.
  Solving generalized eigenproblem
  Updating Kohn-Sham eigenvalues and eigenfunctions.
  Solving real generalised eigenvalue problem by standard LAPACK (fast)
  Determining occupation numbers for Kohn-Sham eigenstates.
  | Chemical potential (Fermi level) in eV                 : -.24586980E+01
  | Error in electron count due to remaining E_F inaccuracy: 0.00000000E+00
  | Maximum occupation number of highest empty state:  0.00E+00

  Highest occupied state (VBM) at     -5.78113409 eV
  | Occupation number:      2.00000000

  Lowest unoccupied state (CBM) at     0.86373811 eV
  | Occupation number:      0.00000000

  Overall HOMO-LUMO gap:      6.64487220 eV.

  Total energy components:
  | Sum of eigenvalues            :         -31.50927568 Ha        -857.41101595 eV
  | XC energy correction          :          -7.94599579 Ha        -216.22154679 eV
  | XC potential correction       :          10.21636958 Ha         278.00156086 eV
  | Free-atom electrostatic energy:         -25.07903808 Ha        -682.43534817 eV
  | Hartree energy correction     :          -2.16014949 Ha         -58.78065827 eV
  | Entropy correction            :          -0.00000000 Ha          -0.00000000 eV
  | ---------------------------
  | Total energy                  :         -56.47808947 Ha       -1536.84700832 eV
  | Total energy, T -> 0          :         -56.47808947 Ha       -1536.84700832 eV  <-- only rely on this value for actual (periodic) metals
  | Electronic free energy        :         -56.47808947 Ha       -1536.84700832 eV

  Derived energy quantities:
  | Kinetic energy                :          56.39066658 Ha        1534.46811051 eV
  | Electrostatic energy          :        -104.92276025 Ha       -2855.09357204 eV
  | Energy correction for multipole
  | error in Hartree potential    :          -0.00470212 Ha          -0.12795115 eV
  | Sum of eigenvalues per atom                           :        -214.35275399 eV
  | Total energy (T->0) per atom                          :        -384.21175208 eV  <-- only rely on this value for actual (periodic) metals
  | Electronic free energy per atom                       :        -384.21175208 eV

  Self-consistency convergence accuracy:
  | Change of charge density      : 0.2571E+00
  | Change of sum of eigenvalues  : -.1984E+02 eV
  | Change of total energy        : 0.8366E+00 eV

  End self-consistency iteration #     2       :  max(cpu_time)    wall_clock(cpu1)
  | Time for this iteration                    :        1.244 s           1.246 s
  | Charge density update                      :        0.300 s           0.300 s
  | Density mixing                             :        0.012 s           0.011 s
  | Hartree multipole update                   :        0.012 s           0.012 s
  | Hartree multipole summation                :        0.476 s           0.477 s
  | Integration                                :        0.444 s           0.444 s
  | Solution of K.-S. eqns.                    :        0.000 s           0.001 s
  | Total energy evaluation                    :        0.004 s           0.000 s
------------------------------------------------------------

------------------------------------------------------------
          Begin self-consistency iteration #    3

  Date     :  20120920, Time     :  210649.399
------------------------------------------------------------
  Evaluating new KS density.
  Integration grid: deviation in total charge (<rho> - N_e) =  -1.421085E-14
  Pulay mixing of updated and previous charge densities.

  Evaluating partitioned Hartree potential by multipole expansion.
  | Analytical far-field extrapolation by fixed multipoles:
  | Hartree multipole sum: apparent total charge =  -0.599624E-07
  Summing up the Hartree potential.
  Time summed over all CPUs for potential: real work        0.951 s, elapsed        0.952 s
  | RMS charge density error from multipole expansion :   0.526617E-02

  Integrating Hamiltonian matrix: batch-based integration.
  Time summed over all CPUs for integration: real work        0.885 s, elapsed        0.886 s

  Updating Kohn-Sham eigenvalues, eigenvectors, occupation numbers, and Fermi level.
  Solving generalized eigenproblem
  Updating Kohn-Sham eigenvalues and eigenfunctions.
  Solving real generalised eigenvalue problem by standard LAPACK (fast)
  Determining occupation numbers for Kohn-Sham eigenstates.
  | Chemical potential (Fermi level) in eV                 : -.20435566E+01
  | Error in electron count due to remaining E_F inaccuracy: 0.00000000E+00
  | Maximum occupation number of highest empty state:  0.00E+00

  Highest occupied state (VBM) at     -5.27533275 eV
  | Occupation number:      2.00000000

  Lowest unoccupied state (CBM) at     1.18821945 eV
  | Occupation number:      0.00000000

  Overall HOMO-LUMO gap:      6.46355220 eV.

  Total energy components:
  | Sum of eigenvalues            :         -31.39764781 Ha        -854.37346703 eV
  | XC energy correction          :          -7.97600618 Ha        -217.03817083 eV
  | XC potential correction       :          10.25509965 Ha         279.05545968 eV
  | Free-atom electrostatic energy:         -25.07903808 Ha        -682.43534817 eV
  | Hartree energy correction     :          -2.27884998 Ha         -62.01066304 eV
  | Entropy correction            :          -0.00000000 Ha          -0.00000000 eV
  | ---------------------------
  | Total energy                  :         -56.47644240 Ha       -1536.80218938 eV
  | Total energy, T -> 0          :         -56.47644240 Ha       -1536.80218938 eV  <-- only rely on this value for actual (periodic) metals
  | Electronic free energy        :         -56.47644240 Ha       -1536.80218938 eV

  Derived energy quantities:
  | Kinetic energy                :          56.16642415 Ha        1528.36616349 eV
  | Electrostatic energy          :        -104.66686037 Ha       -2848.13018204 eV
  | Energy correction for multipole
  | error in Hartree potential    :          -0.00538305 Ha          -0.14648028 eV
  | Sum of eigenvalues per atom                           :        -213.59336676 eV
  | Total energy (T->0) per atom                          :        -384.20054734 eV  <-- only rely on this value for actual (periodic) metals
  | Electronic free energy per atom                       :        -384.20054734 eV

  Self-consistency convergence accuracy:
  | Change of charge density      : 0.6665E-01
  | Change of sum of eigenvalues  : 0.3038E+01 eV
  | Change of total energy        : 0.4482E-01 eV

  End self-consistency iteration #     3       :  max(cpu_time)    wall_clock(cpu1)
  | Time for this iteration                    :        1.244 s           1.244 s
  | Charge density update                      :        0.296 s           0.295 s
  | Density mixing                             :        0.016 s           0.016 s
  | Hartree multipole update                   :        0.012 s           0.012 s
  | Hartree multipole summation                :        0.476 s           0.477 s
  | Integration                                :        0.444 s           0.443 s
  | Solution of K.-S. eqns.                    :        0.000 s           0.001 s
  | Total energy evaluation                    :        0.000 s           0.000 s
------------------------------------------------------------

------------------------------------------------------------
          Begin self-consistency iteration #    4

  Date     :  20120920, Time     :  210650.643
------------------------------------------------------------
  Evaluating new KS density.
  Integration grid: deviation in total charge (<rho> - N_e) =   3.552714E-15
  Pulay mixing of updated and previous charge densities.

  Evaluating partitioned Hartree potential by multipole expansion.
  | Analytical far-field extrapolation by fixed multipoles:
  | Hartree multipole sum: apparent total charge =  -0.600624E-07
  Summing up the Hartree potential.
  Time summed over all CPUs for potential: real work        0.948 s, elapsed        0.954 s
  | RMS charge density error from multipole expansion :   0.520456E-02

  Integrating Hamiltonian matrix: batch-based integration.
  Time summed over all CPUs for integration: real work        0.890 s, elapsed        0.897 s

  Updating Kohn-Sham eigenvalues, eigenvectors, occupation numbers, and Fermi level.
  Solving generalized eigenproblem
  Updating Kohn-Sham eigenvalues and eigenfunctions.
  Solving real generalised eigenvalue problem by standard LAPACK (fast)
  Determining occupation numbers for Kohn-Sham eigenstates.
  | Chemical potential (Fermi level) in eV                 : -.21055428E+01
  | Error in electron count due to remaining E_F inaccuracy: 0.00000000E+00
  | Maximum occupation number of highest empty state:  0.00E+00

  Highest occupied state (VBM) at     -5.35768807 eV
  | Occupation number:      2.00000000

  Lowest unoccupied state (CBM) at     1.14660244 eV
  | Occupation number:      0.00000000

  Overall HOMO-LUMO gap:      6.50429051 eV.

  Total energy components:
  | Sum of eigenvalues            :         -31.43149981 Ha        -855.29462665 eV
  | XC energy correction          :          -7.97022465 Ha        -216.88084746 eV
  | XC potential correction       :          10.24761585 Ha         278.85181512 eV
  | Free-atom electrostatic energy:         -25.07903808 Ha        -682.43534817 eV
  | Hartree energy correction     :          -2.24326841 Ha         -61.04243932 eV
  | Entropy correction            :          -0.00000000 Ha          -0.00000000 eV
  | ---------------------------
  | Total energy                  :         -56.47641510 Ha       -1536.80144647 eV
  | Total energy, T -> 0          :         -56.47641510 Ha       -1536.80144647 eV  <-- only rely on this value for actual (periodic) metals
  | Electronic free energy        :         -56.47641510 Ha       -1536.80144647 eV

  Derived energy quantities:
  | Kinetic energy                :          56.15569512 Ha        1528.07421173 eV
  | Electrostatic energy          :        -104.66188557 Ha       -2847.99481075 eV
  | Energy correction for multipole
  | error in Hartree potential    :          -0.00533451 Ha          -0.14515929 eV
  | Sum of eigenvalues per atom                           :        -213.82365666 eV
  | Total energy (T->0) per atom                          :        -384.20036162 eV  <-- only rely on this value for actual (periodic) metals
  | Electronic free energy per atom                       :        -384.20036162 eV

  Self-consistency convergence accuracy:
  | Change of charge density      : 0.5565E-02
  | Change of sum of eigenvalues  : -.9212E+00 eV
  | Change of total energy        : 0.7429E-03 eV

  End self-consistency iteration #     4       :  max(cpu_time)    wall_clock(cpu1)
  | Time for this iteration                    :        1.252 s           1.253 s
  | Charge density update                      :        0.296 s           0.294 s
  | Density mixing                             :        0.020 s           0.019 s
  | Hartree multipole update                   :        0.012 s           0.013 s
  | Hartree multipole summation                :        0.476 s           0.477 s
  | Integration                                :        0.448 s           0.449 s
  | Solution of K.-S. eqns.                    :        0.000 s           0.000 s
  | Total energy evaluation                    :        0.000 s           0.000 s
------------------------------------------------------------

------------------------------------------------------------
          Begin self-consistency iteration #    5

  Date     :  20120920, Time     :  210651.897
------------------------------------------------------------
  Evaluating new KS density.
  Integration grid: deviation in total charge (<rho> - N_e) =  -7.105427E-15
  Pulay mixing of updated and previous charge densities.

  Evaluating partitioned Hartree potential by multipole expansion.
  | Analytical far-field extrapolation by fixed multipoles:
  | Hartree multipole sum: apparent total charge =  -0.606700E-07
  Summing up the Hartree potential.
  Time summed over all CPUs for potential: real work        0.946 s, elapsed        0.948 s
  | RMS charge density error from multipole expansion :   0.522892E-02

  Integrating Hamiltonian matrix: batch-based integration.
  Time summed over all CPUs for integration: real work        0.887 s, elapsed        0.888 s

  Updating Kohn-Sham eigenvalues, eigenvectors, occupation numbers, and Fermi level.
  Solving generalized eigenproblem
  Updating Kohn-Sham eigenvalues and eigenfunctions.
  Solving real generalised eigenvalue problem by standard LAPACK (fast)
  Determining occupation numbers for Kohn-Sham eigenstates.
  | Chemical potential (Fermi level) in eV                 : -.21017745E+01
  | Error in electron count due to remaining E_F inaccuracy: 0.00000000E+00
  | Maximum occupation number of highest empty state:  0.00E+00

  Highest occupied state (VBM) at     -5.35290359 eV
  | Occupation number:      2.00000000

  Lowest unoccupied state (CBM) at     1.14935459 eV
  | Occupation number:      0.00000000

  Overall HOMO-LUMO gap:      6.50225818 eV.

  Total energy components:
  | Sum of eigenvalues            :         -31.43126491 Ha        -855.28823484 eV
  | XC energy correction          :          -7.97016224 Ha        -216.87914916 eV
  | XC potential correction       :          10.24755776 Ha         278.85023431 eV
  | Free-atom electrostatic energy:         -25.07903808 Ha        -682.43534817 eV
  | Hartree energy correction     :          -2.24350812 Ha         -61.04896202 eV
  | Entropy correction            :          -0.00000000 Ha          -0.00000000 eV
  | ---------------------------
  | Total energy                  :         -56.47641559 Ha       -1536.80145987 eV
  | Total energy, T -> 0          :         -56.47641559 Ha       -1536.80145987 eV  <-- only rely on this value for actual (periodic) metals
  | Electronic free energy        :         -56.47641559 Ha       -1536.80145987 eV

  Derived energy quantities:
  | Kinetic energy                :          56.15097405 Ha        1527.94574496 eV
  | Electrostatic energy          :        -104.65722741 Ha       -2847.86805567 eV
  | Energy correction for multipole
  | error in Hartree potential    :          -0.00535603 Ha          -0.14574499 eV
  | Sum of eigenvalues per atom                           :        -213.82205871 eV
  | Total energy (T->0) per atom                          :        -384.20036497 eV  <-- only rely on this value for actual (periodic) metals
  | Electronic free energy per atom                       :        -384.20036497 eV

  Self-consistency convergence accuracy:
  | Change of charge density      : 0.8128E-03
  | Change of sum of eigenvalues  : 0.6392E-02 eV
  | Change of total energy        : -.1340E-04 eV

  End self-consistency iteration #     5       :  max(cpu_time)    wall_clock(cpu1)
  | Time for this iteration                    :        1.252 s           1.254 s
  | Charge density update                      :        0.300 s           0.299 s
  | Density mixing                             :        0.020 s           0.022 s
  | Hartree multipole update                   :        0.016 s           0.012 s
  | Hartree multipole summation                :        0.472 s           0.475 s
  | Integration                                :        0.444 s           0.444 s
  | Solution of K.-S. eqns.                    :        0.000 s           0.000 s
  | Total energy evaluation                    :        0.000 s           0.000 s
------------------------------------------------------------

------------------------------------------------------------
          Begin self-consistency iteration #    6

  Date     :  20120920, Time     :  210653.151
------------------------------------------------------------
  Evaluating new KS density.
  Integration grid: deviation in total charge (<rho> - N_e) =  -1.065814E-14
  Pulay mixing of updated and previous charge densities.

  Evaluating partitioned Hartree potential by multipole expansion.
  | Analytical far-field extrapolation by fixed multipoles:
  | Hartree multipole sum: apparent total charge =  -0.607512E-07
  Summing up the Hartree potential.
  Time summed over all CPUs for potential: real work        0.951 s, elapsed        0.952 s
  | RMS charge density error from multipole expansion :   0.523311E-02

  Integrating Hamiltonian matrix: batch-based integration.
  Time summed over all CPUs for integration: real work        0.891 s, elapsed        0.896 s

  Updating Kohn-Sham eigenvalues, eigenvectors, occupation numbers, and Fermi level.
  Solving generalized eigenproblem
  Updating Kohn-Sham eigenvalues and eigenfunctions.
  Solving real generalised eigenvalue problem by standard LAPACK (fast)
  Determining occupation numbers for Kohn-Sham eigenstates.
  | Chemical potential (Fermi level) in eV                 : -.21006720E+01
  | Error in electron count due to remaining E_F inaccuracy: 0.00000000E+00
  | Maximum occupation number of highest empty state:  0.00E+00

  Highest occupied state (VBM) at     -5.35170615 eV
  | Occupation number:      2.00000000

  Lowest unoccupied state (CBM) at     1.15036213 eV
  | Occupation number:      0.00000000

  Overall HOMO-LUMO gap:      6.50206828 eV.

  Total energy components:
  | Sum of eigenvalues            :         -31.43080675 Ha        -855.27576766 eV
  | XC energy correction          :          -7.97023829 Ha        -216.88121862 eV
  | XC potential correction       :          10.24765899 Ha         278.85298897 eV
  | Free-atom electrostatic energy:         -25.07903808 Ha        -682.43534817 eV
  | Hartree energy correction     :          -2.24399149 Ha         -61.06211526 eV
  | Entropy correction            :          -0.00000000 Ha          -0.00000000 eV
  | ---------------------------
  | Total energy                  :         -56.47641562 Ha       -1536.80146074 eV
  | Total energy, T -> 0          :         -56.47641562 Ha       -1536.80146074 eV  <-- only rely on this value for actual (periodic) metals
  | Electronic free energy        :         -56.47641562 Ha       -1536.80146074 eV

  Derived energy quantities:
  | Kinetic energy                :          56.15068945 Ha        1527.93800059 eV
  | Electrostatic energy          :        -104.65686679 Ha       -2847.85824271 eV
  | Energy correction for multipole
  | error in Hartree potential    :          -0.00536026 Ha          -0.14586009 eV
  | Sum of eigenvalues per atom                           :        -213.81894191 eV
  | Total energy (T->0) per atom                          :        -384.20036519 eV  <-- only rely on this value for actual (periodic) metals
  | Electronic free energy per atom                       :        -384.20036519 eV

  Self-consistency convergence accuracy:
  | Change of charge density      : 0.1027E-03
  | Change of sum of eigenvalues  : 0.1247E-01 eV
  | Change of total energy        : -.8674E-06 eV

  End self-consistency iteration #     6       :  max(cpu_time)    wall_clock(cpu1)
  | Time for this iteration                    :        1.260 s           1.259 s
  | Charge density update                      :        0.296 s           0.296 s
  | Density mixing                             :        0.024 s           0.024 s
  | Hartree multipole update                   :        0.012 s           0.013 s
  | Hartree multipole summation                :        0.480 s           0.477 s
  | Integration                                :        0.448 s           0.448 s
  | Solution of K.-S. eqns.                    :        0.000 s           0.000 s
  | Total energy evaluation                    :        0.000 s           0.000 s
------------------------------------------------------------

------------------------------------------------------------
          Begin self-consistency iteration #    7

  Date     :  20120920, Time     :  210654.410
------------------------------------------------------------
  Evaluating new KS density.
  Integration grid: deviation in total charge (<rho> - N_e) =  -3.552714E-15
  Pulay mixing of updated and previous charge densities.

  Evaluating partitioned Hartree potential by multipole expansion.
  | Analytical far-field extrapolation by fixed multipoles:
  | Hartree multipole sum: apparent total charge =  -0.607573E-07
  Summing up the Hartree potential.
  Time summed over all CPUs for potential: real work        0.947 s, elapsed        0.949 s
  | RMS charge density error from multipole expansion :   0.523316E-02

  Integrating Hamiltonian matrix: batch-based integration.
  Time summed over all CPUs for integration: real work        0.888 s, elapsed        0.891 s

  Updating Kohn-Sham eigenvalues, eigenvectors, occupation numbers, and Fermi level.
  Solving generalized eigenproblem
  Updating Kohn-Sham eigenvalues and eigenfunctions.
  Solving real generalised eigenvalue problem by standard LAPACK (fast)
  Determining occupation numbers for Kohn-Sham eigenstates.
  | Chemical potential (Fermi level) in eV                 : -.21007689E+01
  | Error in electron count due to remaining E_F inaccuracy: 0.00000000E+00
  | Maximum occupation number of highest empty state:  0.00E+00

  Highest occupied state (VBM) at     -5.35185439 eV
  | Occupation number:      2.00000000

  Lowest unoccupied state (CBM) at     1.15031653 eV
  | Occupation number:      0.00000000

  Overall HOMO-LUMO gap:      6.50217093 eV.

  Total energy components:
  | Sum of eigenvalues            :         -31.43083421 Ha        -855.27651494 eV
  | XC energy correction          :          -7.97023456 Ha        -216.88111721 eV
  | XC potential correction       :          10.24765438 Ha         278.85286354 eV
  | Free-atom electrostatic energy:         -25.07903808 Ha        -682.43534817 eV
  | Hartree energy correction     :          -2.24396314 Ha         -61.06134378 eV
  | Entropy correction            :          -0.00000000 Ha          -0.00000000 eV
  | ---------------------------
  | Total energy                  :         -56.47641562 Ha       -1536.80146056 eV
  | Total energy, T -> 0          :         -56.47641562 Ha       -1536.80146056 eV  <-- only rely on this value for actual (periodic) metals
  | Electronic free energy        :         -56.47641562 Ha       -1536.80146056 eV

  Derived energy quantities:
  | Kinetic energy                :          56.15074309 Ha        1527.93946031 eV
  | Electrostatic energy          :        -104.65692415 Ha       -2847.85980366 eV
  | Energy correction for multipole
  | error in Hartree potential    :          -0.00536066 Ha          -0.14587093 eV
  | Sum of eigenvalues per atom                           :        -213.81912874 eV
  | Total energy (T->0) per atom                          :        -384.20036514 eV  <-- only rely on this value for actual (periodic) metals
  | Electronic free energy per atom                       :        -384.20036514 eV

  Self-consistency convergence accuracy:
  | Change of charge density      : 0.2243E-04
  | Change of sum of eigenvalues  : -.7473E-03 eV
  | Change of total energy        : 0.1804E-06 eV

  End self-consistency iteration #     7       :  max(cpu_time)    wall_clock(cpu1)
  | Time for this iteration                    :        1.256 s           1.259 s
  | Charge density update                      :        0.296 s           0.296 s
  | Density mixing                             :        0.028 s           0.028 s
  | Hartree multipole update                   :        0.016 s           0.012 s
  | Hartree multipole summation                :        0.472 s           0.476 s
  | Integration                                :        0.448 s           0.446 s
  | Solution of K.-S. eqns.                    :        0.000 s           0.000 s
  | Total energy evaluation                    :        0.000 s           0.001 s
------------------------------------------------------------

------------------------------------------------------------
          Begin self-consistency iteration #    8

  Date     :  20120920, Time     :  210655.669
------------------------------------------------------------
  Evaluating new KS density.
  Integration grid: deviation in total charge (<rho> - N_e) =  -3.375078E-14
  Pulay mixing of updated and previous charge densities.

  Evaluating partitioned Hartree potential by multipole expansion.
  | Analytical far-field extrapolation by fixed multipoles:
  | Hartree multipole sum: apparent total charge =  -0.607575E-07
  Summing up the Hartree potential.
  Time summed over all CPUs for potential: real work        0.947 s, elapsed        0.948 s
  | RMS charge density error from multipole expansion :   0.523314E-02

  Integrating Hamiltonian matrix: batch-based integration.
  Time summed over all CPUs for integration: real work        0.883 s, elapsed        0.892 s

  Updating Kohn-Sham eigenvalues, eigenvectors, occupation numbers, and Fermi level.
  Solving generalized eigenproblem
  Updating Kohn-Sham eigenvalues and eigenfunctions.
  Solving real generalised eigenvalue problem by standard LAPACK (fast)
  Determining occupation numbers for Kohn-Sham eigenstates.
  | Chemical potential (Fermi level) in eV                 : -.21008030E+01
  | Error in electron count due to remaining E_F inaccuracy: 0.00000000E+00
  | Maximum occupation number of highest empty state:  0.00E+00

  Highest occupied state (VBM) at     -5.35190330 eV
  | Occupation number:      2.00000000

  Lowest unoccupied state (CBM) at     1.15029735 eV
  | Occupation number:      0.00000000

  Overall HOMO-LUMO gap:      6.50220065 eV.

  Total energy components:
  | Sum of eigenvalues            :         -31.43085703 Ha        -855.27713584 eV
  | XC energy correction          :          -7.97023120 Ha        -216.88102578 eV
  | XC potential correction       :          10.24765002 Ha         278.85274496 eV
  | Free-atom electrostatic energy:         -25.07903808 Ha        -682.43534817 eV
  | Hartree energy correction     :          -2.24393932 Ha         -61.06069574 eV
  | Entropy correction            :          -0.00000000 Ha          -0.00000000 eV
  | ---------------------------
  | Total energy                  :         -56.47641562 Ha       -1536.80146056 eV
  | Total energy, T -> 0          :         -56.47641562 Ha       -1536.80146056 eV  <-- only rely on this value for actual (periodic) metals
  | Electronic free energy        :         -56.47641562 Ha       -1536.80146056 eV

  Derived energy quantities:
  | Kinetic energy                :          56.15072722 Ha        1527.93902832 eV
  | Electrostatic energy          :        -104.65691164 Ha       -2847.85946310 eV
  | Energy correction for multipole
  | error in Hartree potential    :          -0.00536062 Ha          -0.14586997 eV
  | Sum of eigenvalues per atom                           :        -213.81928396 eV
  | Total energy (T->0) per atom                          :        -384.20036514 eV  <-- only rely on this value for actual (periodic) metals
  | Electronic free energy per atom                       :        -384.20036514 eV

  Self-consistency convergence accuracy:
  | Change of charge density      : 0.3318E-05
  | Change of sum of eigenvalues  : -.6209E-03 eV
  | Change of total energy        : 0.9428E-09 eV

  End self-consistency iteration #     8       :  max(cpu_time)    wall_clock(cpu1)
  | Time for this iteration                    :        1.264 s           1.264 s
  | Charge density update                      :        0.300 s           0.299 s
  | Density mixing                             :        0.028 s           0.031 s
  | Hartree multipole update                   :        0.016 s           0.012 s
  | Hartree multipole summation                :        0.476 s           0.475 s
  | Integration                                :        0.448 s           0.446 s
  | Solution of K.-S. eqns.                    :        0.000 s           0.001 s
  | Total energy evaluation                    :        0.000 s           0.000 s
------------------------------------------------------------

------------------------------------------------------------
          Begin self-consistency iteration #    9

  Date     :  20120920, Time     :  210656.934
------------------------------------------------------------
  Evaluating new KS density.
  Integration grid: deviation in total charge (<rho> - N_e) =  -2.131628E-14
  Pulay mixing of updated and previous charge densities.

  Evaluating partitioned Hartree potential by multipole expansion.
  | Analytical far-field extrapolation by fixed multipoles:
  | Hartree multipole sum: apparent total charge =  -0.607575E-07
  Summing up the Hartree potential.
  Time summed over all CPUs for potential: real work        0.948 s, elapsed        0.951 s
  | RMS charge density error from multipole expansion :   0.523314E-02

  Integrating Hamiltonian matrix: batch-based integration.
  Time summed over all CPUs for integration: real work        0.881 s, elapsed        0.888 s

  Updating Kohn-Sham eigenvalues, eigenvectors, occupation numbers, and Fermi level.
  Solving generalized eigenproblem
  Updating Kohn-Sham eigenvalues and eigenfunctions.
  Solving real generalised eigenvalue problem by standard LAPACK (fast)
  Determining occupation numbers for Kohn-Sham eigenstates.
  | Chemical potential (Fermi level) in eV                 : -.21007944E+01
  | Error in electron count due to remaining E_F inaccuracy: 0.00000000E+00
  | Maximum occupation number of highest empty state:  0.00E+00

  Highest occupied state (VBM) at     -5.35189130 eV
  | Occupation number:      2.00000000

  Lowest unoccupied state (CBM) at     1.15030258 eV
  | Occupation number:      0.00000000

  Overall HOMO-LUMO gap:      6.50219388 eV.

  Total energy components:
  | Sum of eigenvalues            :         -31.43085172 Ha        -855.27699136 eV
  | XC energy correction          :          -7.97023201 Ha        -216.88104765 eV
  | XC potential correction       :          10.24765107 Ha         278.85277341 eV
  | Free-atom electrostatic energy:         -25.07903808 Ha        -682.43534817 eV
  | Hartree energy correction     :          -2.24394488 Ha         -61.06084679 eV
  | Entropy correction            :          -0.00000000 Ha          -0.00000000 eV
  | ---------------------------
  | Total energy                  :         -56.47641562 Ha       -1536.80146056 eV
  | Total energy, T -> 0          :         -56.47641562 Ha       -1536.80146056 eV  <-- only rely on this value for actual (periodic) metals
  | Electronic free energy        :         -56.47641562 Ha       -1536.80146056 eV

  Derived energy quantities:
  | Kinetic energy                :          56.15073012 Ha        1527.93910712 eV
  | Electrostatic energy          :        -104.65691373 Ha       -2847.85952002 eV
  | Energy correction for multipole
  | error in Hartree potential    :          -0.00536063 Ha          -0.14587005 eV
  | Sum of eigenvalues per atom                           :        -213.81924784 eV
  | Total energy (T->0) per atom                          :        -384.20036514 eV  <-- only rely on this value for actual (periodic) metals
  | Electronic free energy per atom                       :        -384.20036514 eV

  Self-consistency convergence accuracy:
  | Change of charge density      : 0.8649E-06
  | Change of sum of eigenvalues  : 0.1445E-03 eV
  | Change of total energy        : 0.1323E-08 eV

  End self-consistency iteration #     9       :  max(cpu_time)    wall_clock(cpu1)
  | Time for this iteration                    :        1.264 s           1.267 s
  | Charge density update                      :        0.300 s           0.299 s
  | Density mixing                             :        0.036 s           0.034 s
  | Hartree multipole update                   :        0.012 s           0.012 s
  | Hartree multipole summation                :        0.476 s           0.477 s
  | Integration                                :        0.444 s           0.444 s
  | Solution of K.-S. eqns.                    :        0.000 s           0.000 s
  | Total energy evaluation                    :        0.000 s           0.000 s
------------------------------------------------------------

------------------------------------------------------------
          Begin self-consistency iteration #   10

  Date     :  20120920, Time     :  210658.201
------------------------------------------------------------
  Evaluating new KS density.
  Integration grid: deviation in total charge (<rho> - N_e) =   0.000000E+00
  Pulay mixing of updated and previous charge densities.

  Evaluating partitioned Hartree potential by multipole expansion.
  | Analytical far-field extrapolation by fixed multipoles:
  | Hartree multipole sum: apparent total charge =  -0.607575E-07
  Summing up the Hartree potential.
  Time summed over all CPUs for potential: real work        0.947 s, elapsed        0.949 s
  | RMS charge density error from multipole expansion :   0.523314E-02

  Integrating Hamiltonian matrix: batch-based integration.
  Time summed over all CPUs for integration: real work        0.894 s, elapsed        0.897 s

  Updating Kohn-Sham eigenvalues, eigenvectors, occupation numbers, and Fermi level.
  Solving generalized eigenproblem
  Updating Kohn-Sham eigenvalues and eigenfunctions.
  Solving real generalised eigenvalue problem by standard LAPACK (fast)
  Determining occupation numbers for Kohn-Sham eigenstates.
  | Chemical potential (Fermi level) in eV                 : -.21007944E+01
  | Error in electron count due to remaining E_F inaccuracy: 0.00000000E+00
  | Maximum occupation number of highest empty state:  0.00E+00

  Highest occupied state (VBM) at     -5.35189133 eV
  | Occupation number:      2.00000000

  Lowest unoccupied state (CBM) at     1.15030260 eV
  | Occupation number:      0.00000000

  Overall HOMO-LUMO gap:      6.50219393 eV.

  Total energy components:
  | Sum of eigenvalues            :         -31.43085172 Ha        -855.27699145 eV
  | XC energy correction          :          -7.97023201 Ha        -216.88104770 eV
  | XC potential correction       :          10.24765107 Ha         278.85277348 eV
  | Free-atom electrostatic energy:         -25.07903808 Ha        -682.43534817 eV
  | Hartree energy correction     :          -2.24394487 Ha         -61.06084673 eV
  | Entropy correction            :          -0.00000000 Ha          -0.00000000 eV
  | ---------------------------
  | Total energy                  :         -56.47641562 Ha       -1536.80146056 eV
  | Total energy, T -> 0          :         -56.47641562 Ha       -1536.80146056 eV  <-- only rely on this value for actual (periodic) metals
  | Electronic free energy        :         -56.47641562 Ha       -1536.80146056 eV

  Derived energy quantities:
  | Kinetic energy                :          56.15073018 Ha        1527.93910882 eV
  | Electrostatic energy          :        -104.65691379 Ha       -2847.85952168 eV
  | Energy correction for multipole
  | error in Hartree potential    :          -0.00536063 Ha          -0.14587004 eV
  | Sum of eigenvalues per atom                           :        -213.81924786 eV
  | Total energy (T->0) per atom                          :        -384.20036514 eV  <-- only rely on this value for actual (periodic) metals
  | Electronic free energy per atom                       :        -384.20036514 eV

  Self-consistency convergence accuracy:
  | Change of charge density      : 0.2202E-07
  | Change of sum of eigenvalues  : -.8275E-07 eV
  | Change of total energy        : 0.3819E-09 eV

  Writing Kohn-Sham eigenvalues.

  State    Occupation    Eigenvalue [Ha]    Eigenvalue [eV]
      1       2.00000         -13.961738         -379.91823
      2       2.00000          -0.762382          -20.74546
      3       2.00000          -0.397314          -10.81146
      4       2.00000          -0.397314          -10.81145
      5       2.00000          -0.196678           -5.35189
      6       0.00000           0.042273            1.15030
      7       0.00000           0.121996            3.31967
      8       0.00000           0.121996            3.31967
      9       0.00000           0.479332           13.04330
     10       0.00000           0.479332           13.04330
     11       0.00000           0.597033           16.24609
     12       0.00000           0.708296           19.27371
     13       0.00000           0.781684           21.27072
     14       0.00000           0.781685           21.27073
     15       0.00000           1.024082           27.86669
     16       0.00000           1.024083           27.86671
     17       0.00000           1.102367           29.99693
     18       0.00000           1.440311           39.19287
     19       0.00000           1.598408           43.49490
     20       0.00000           1.633022           44.43680
     21       0.00000           1.633023           44.43681
     22       0.00000           1.920534           52.26040
     23       0.00000           1.920535           52.26043
     24       0.00000           2.172328           59.11206
     25       0.00000           2.427070           66.04393
     26       0.00000           2.427071           66.04395
     27       0.00000           2.542460           69.18385
     28       0.00000           2.866640           78.00525
     29       0.00000           2.866641           78.00526

  Highest occupied state (VBM) at     -5.35189133 eV
  | Occupation number:      2.00000000

  Lowest unoccupied state (CBM) at     1.15030260 eV
  | Occupation number:      0.00000000

  Overall HOMO-LUMO gap:      6.50219393 eV.

  Self-consistency cycle converged.

  End self-consistency iteration #    10       :  max(cpu_time)    wall_clock(cpu1)
  | Time for this iteration                    :        1.268 s           1.269 s
  | Charge density update                      :        0.296 s           0.293 s
  | Density mixing                             :        0.036 s           0.038 s
  | Hartree multipole update                   :        0.012 s           0.012 s
  | Hartree multipole summation                :        0.476 s           0.475 s
  | Integration                                :        0.448 s           0.449 s
  | Solution of K.-S. eqns.                    :        0.004 s           0.000 s
  | Total energy evaluation                    :        0.000 s           0.000 s
------------------------------------------------------------

  Energy and forces in a compact form:
  | Total energy uncorrected      :         -0.153680146055899E+04 eV
  | Total energy corrected        :         -0.153680146055899E+04 eV  <-- only rely on this value for actual (periodic) metals
  | Electronic free energy        :         -0.153680146055899E+04 eV

  ------------------------------------ 
  Start decomposition of the XC Energy 
  ------------------------------------ 
  Hartree-Fock part   :          0.000000000 Ha              0.000000000 eV
  ------------------------------------ 
  X Energy            :         -7.649986072 Ha           -208.166712419 eV
  C Energy GGA        :         -0.320245935 Ha             -8.714335278 eV
  Total XC Energy     :         -7.970232007 Ha           -216.881047697 eV
  LDA X and C from self-consistent density 
  X Energy LDA        :         -6.930956877 Ha           -188.600932534 eV
  C Energy LDA        :         -0.625710211 Ha            -17.026441147 eV
  ------------------------------------ 
  End decomposition of the XC Energy 
  ------------------------------------ 

 --------------------------------------------
  Constructing auxiliary basis (full product) ...

  Product basis:
  | charge radius: extent of product basis function
  | field radius: extent of its Coulomb potential
  | Species   l  charge radius    field radius  multipol momen
  |    N      0     2.196414 A      2.196414 A    1.3231E-16 a.u.
  |    N      1     2.334858 A      2.334858 A   -2.8553E-17 a.u.
  |    N      0     2.363576 A      2.363576 A   -1.3450E-16 a.u.
  |    N      0     2.874204 A      2.874204 A   -2.6981E-17 a.u.
  |    N      1     2.945344 A      2.945344 A    4.3036E-17 a.u.
  |    N      0     2.981572 A      2.981572 A    1.0098E-17 a.u.
  |    N      2     2.981572 A      2.981572 A    6.2740E-17 a.u.
  |    N      3     3.055370 A      3.055370 A   -3.3322E-16 a.u.
  |    N      3     3.092951 A      3.092951 A   -7.0212E-16 a.u.
  |    N      0     4.355438 A      4.355438 A   -8.4330E-17 a.u.
  |    N      1     4.409010 A      4.409010 A   -2.8042E-16 a.u.
  |    N      1     4.463241 A      4.463241 A   -8.8138E-17 a.u.
  |    N      2     4.518138 A      4.518138 A    1.5291E-16 a.u.
  |    N      2     4.518138 A      4.518138 A    2.7791E-16 a.u.
  |    N      2     4.518138 A      4.518138 A   -2.1117E-16 a.u.
  |    N      4     2.512557 A    2.2360E+02 A      1.071854 a.u.
  |    N      3     3.130994 A    1.2152E+03 A      2.212646 a.u.
  |    N      2     4.629968 A    1.6294E+04 A      2.323294 a.u.
  |    N      1     4.518138 A    1.7953E+06 A      0.915913 a.u.
  |    N      0     4.302517 A    3.1270E+12 A      0.470243 a.u.
  |    H      1     3.215356 A      3.215356 A    4.6346E-17 a.u.
  |    H      0     3.815562 A      3.815562 A    1.8667E-16 a.u.
  |    H      0     5.781930 A      5.781930 A    2.0489E-16 a.u.
  |    H      2     2.517934 A    8.6084E+03 A      0.342576 a.u.
  |    H      1     3.254905 A    1.2873E+06 A      0.470947 a.u.
  |    H      0     5.711676 A    3.4615E+12 A      0.520541 a.u.

  | Shrink_full_auxil_basis : there are       26  radial auxiliary wave functions
                            accepted and      17 rejected.
  | Shrink_full_auxil_basis : there are totally     118 partial auxiliary wave functions.

  | Number of product basis functions per thread :    59
  | Minimal requirement for computer memories :           0.000 Gbs

  Basis pair condensation :       435  -->        435

 ----------------------------------------------------
  Integrating the 3-basis-function Coulomb matrix ...
  | i_atom:            1
  | i_atom:            2
  | i_atom:            3
  | i_atom:            4
  Integrating the Coulomb interaction matrix for auxiliary basis functions (by atoms)

  SBT integration errors (all should be 'small'):
  large logFT aliasing -> increase N/lnrange
  large SBT aliasing -> decrease lnk0 & increase lnk0+lnrange
  large SBT ringing -> decrease lnr0 & increase lnr0+lnrange
  |            El't  L: logFT-al.   small-k   large-k   small-r   large-r
  | Errors for    N  0:  7.09E-16  3.18E-46  1.34-100  8.47E-48  0.00E+00
  | Errors for    N  1:  2.16E-15  3.34E-57  2.83E-98  4.80E-64  0.00E+00
  | Errors for    N  0:  3.75E-15  1.77E-45  1.28-109  4.66E-48  0.00E+00
  | Errors for    N  0:  1.26E-14  1.31E-45  3.02-122  3.93E-47  0.00E+00
  | Errors for    N  1:  2.05E-14  2.23E-56  1.22E-89  2.78E-64  0.00E+00
  | Errors for    N  0:  2.66E-14  5.20E-45  4.47-130  1.68E-47  0.00E+00
  | Errors for    N  2:  6.83E-15  6.44E-68  0.00E+00  3.93E-81  0.00E+00
  | Errors for    N  3:  2.18E-14  1.87E-57  0.00E+00  3.81E-98  0.00E+00
  | Errors for    N  3:  3.31E-13  3.08E-57  5.77E-59  1.07E-97  0.00E+00
  | Errors for    N  0:  4.50E-14  1.40E-44  1.26-123  8.44E-48  0.00E+00
  | Errors for    N  1:  4.22E-14  1.02E-55  1.93-111  9.09E-65  0.00E+00
  | Errors for    N  1:  3.11E-13  1.07E-55  5.78-148  2.99E-65  0.00E+00
  | Errors for    N  2:  1.35E-14  5.40E-67  0.00E+00  3.90E-81  0.00E+00
  | Errors for    N  2:  6.99E-15  3.67E-67  1.06E-42  5.59E-80  0.00E+00
  | Errors for    N  2:  1.21E-13  3.75E-67  2.66-220  1.47E-79  0.00E+00
  | Errors for    N  4:  6.57E-14  3.05E-46  0.00E+00  1.59-115  0.00E+00
  | Errors for    N  3:  3.85E-13  3.15E-34  4.31E-58  5.28E-98  0.00E+00
  | Errors for    N  2:  5.07E-14  2.30E-44  2.07E-86  3.06E-80  0.00E+00
  | Errors for    N  1:  1.49E-13  1.96E-33  5.37-110  2.06E-65  0.00E+00
  | Errors for    N  0:  1.26E-14  7.24E-23  6.26E-93  2.09E-48  0.00E+00
  | Errors for    H  1:  1.70E-14  2.87E-56  1.44-277  8.46E-66  0.00E+00
  | Errors for    H  0:  2.01E-15  6.26E-45  3.11-238  1.83E-49  0.00E+00
  | Errors for    H  0:  2.75E-15  2.31E-44  1.41-245  1.93E-49  0.00E+00
  | Errors for    H  2:  4.55E-15  3.39E-45  0.00E+00  1.18E-82  0.00E+00
  | Errors for    H  1:  1.90E-14  1.01E-33  1.12-274  5.88E-66  0.00E+00
  | Errors for    H  0:  4.71E-16  8.01E-23  2.62-232  6.02E-50  0.00E+00

  Atomic logSBT for 2-center Coulomb matrix    :  max(cpu_time)    wall_clock(cpu1)
  | Multiplication with kernel                 :        0.032 s           0.018 s
  | Main matrix multiplication                 :        0.024 s           0.013 s
  | Analytic angular integration               :        0.012 s           0.006 s
  | Kernel construction                        :        0.024 s           0.007 s
  | Overall 2-center overlap time              :        0.108 s           0.047 s

  Difference of Coulomb matrix to its transposed:  3.0531E-16
  Task     0: Eigenvalues of the Coulomb matrix range from    3.7721E+00 to    7.6873E-05.
  Task     0: Using      118   eigenvalues out of rank      118   Coulomb matrix (auxiliary basis).

  Multiplying V^-0.5 x ovlp_3fn (1d-scalapack)

  End of correlation preparation               :  max(cpu_time)    wall_clock(cpu1)
  | Product basis setup: Total time            :        2.756 s           2.759 s
  | Product basis: | 3-center integrations     :        2.256 s           2.258 s
  | Product basis: | 2-center integrations     :        0.464 s           0.465 s
  | Product basis: | 2-center linear algebra   :        0.012 s           0.013 s
  | Product basis: | 3-center x 2-center       :        0.004 s           0.001 s

--------------------------------------------
          RPA total energy calculation starts ...

  The first valence state in the frozen-core algorithm :    2
  The ovlp_3KS matrix takes another      0 MiB x      2 procs =       0.000 GiB.


  Initialising transformed Gauss-Legendre time and frequency grids
  Number of freuency points for self energy.....: 40
  Number of frequency points....................: 40

  Starts to calculate the exchange energy ...

  Integrating the xc potential matrix  for basis functions ...

  Starts to calculate the single excitation correction ...

  | Single excitation contribution to the correlation energy:  -0.16089474 eV
  | Renormalized single excitation contribution (diag) to the correlation energy:  -0.12320950  eV


  Starts to calculate the renormalized single excitation (full) correction ...
  Diagonalizing the RSE-HF-Occ matrix  and checking for singularities.

  Diagonalizing the RSE-HF-Unocc matrix  and checking for singularities.


  | Renormalized single excitation contribution (full) to the correlation energy:  -0.12197289  eV


 ----------------------------------- ------------------------------------
  Start to calculate the RPA correlation energy  ... 
  HOMO and first non-fully-occupied orbitals:    5    6

 | i_freq    1            0.000441
 | i_freq    2            0.002329
 | i_freq    3            0.005750
 | i_freq    4            0.010747
 | i_freq    5            0.017381
 | i_freq    6            0.025735
 | i_freq    7            0.035917
 | i_freq    8            0.048062
 | i_freq    9            0.062333
 | i_freq   10            0.078932
 | i_freq   11            0.098102
 | i_freq   12            0.120134
 | i_freq   13            0.145383
 | i_freq   14            0.174274
 | i_freq   15            0.207324
 | i_freq   16            0.245160
 | i_freq   17            0.288549
 | i_freq   18            0.338436
 | i_freq   19            0.395990
 | i_freq   20            0.462675
 | i_freq   21            0.540336
 | i_freq   22            0.631329
 | i_freq   23            0.738693
 | i_freq   24            0.866404
 | i_freq   25            1.019743
 | i_freq   26            1.205842
 | i_freq   27            1.434520
 | i_freq   28            1.719594
 | i_freq   29            2.081004
 | i_freq   30            2.548378
 | i_freq   31            3.167279
 | i_freq   32            4.010715
 | i_freq   33            5.201652
 | i_freq   34            6.960432
 | i_freq   35            9.714380
 | i_freq   36           14.383789
 | i_freq   37           23.262462
 | i_freq   38           43.475277
 | i_freq   39          107.331113
 | i_freq   40          566.943404

 -----------------------------------------------------------------------------
    RPA correlation energy :          -0.30329777  Ha,        -8.25315211  eV

 --------------------------------------------------------------------
    Exact exchange energy             :           -7.68435944 Ha,        -209.10205942 eV
    DFT/HF exchange energy            :           -6.93095688 Ha,        -188.60093253 eV

    DFT/HF total energy               :          -56.47641562 Ha,       -1536.80146056 eV
    Exchange-only total energy        :          -56.19054305 Ha,       -1529.02247228 eV
    RPA total energy                  :          -56.49384082 Ha,       -1537.27562440 eV

    RPA+SE total energy               :          -56.49975359 Ha,       -1537.43651914 eV
    RPA+rSE (diag) total energy       :          -56.49836868 Ha,       -1537.39883390 eV
    RPA+rSE (full) total energy       :          -56.49832324 Ha,       -1537.39759729 eV

    RPA+ total energy                 :          -56.30428532 Ha,       -1532.11755691 eV

 ----------------------------------------------------------------------------


------------------------------------------------------------------------------
  Final output of selected total energy values:

  The following output summarizes some interesting total energy values
  at the end of a run (AFTER all relaxation, molecular dynamics, etc.).

  | Total energy of the DFT / Hartree-Fock s.c.f. calculation      :          -1536.801460559 eV
  | Final zero-broadening corrected energy (caution - metals only) :          -1536.801460559 eV
  | Total energy after the post-s.c.f. correlation calculation     :          -1537.275624399 eV
  | For reference only, the value of 1 Hartree used in FHI-aims is :             27.211384500 eV

  Before relying on these values, please be sure to understand exactly which
  total energy value is referred to by a given number. Different objects may
  all carry the same name 'total energy'. Definitions:

  Total energy of the DFT / Hartree-Fock s.c.f. calculation:
  | Note that this energy does not include ANY quantities calculated after the
  | s.c.f. cycle, in particular not ANY RPA, MP2, etc. many-body perturbation terms.

  Final zero-broadening corrected energy:
  | For metallic systems only, a broadening of the occupation numbers at the Fermi
  | level can be extrapolated back to zero broadening by an electron-gas inspired
  | formula. For all systems that are not real metals, this value can be
  | meaningless and should be avoided.

  Total energy of the post-s.c.f. correlation calculation        :
  | The actual meaning of this energy depends on the setting for the 'total_energy_method'
  | keyword (MP2, RPA, rPT2, etc). If not sure, compare to the results listed above.

------------------------------------------------------------------------------

------------------------------------------------------------
          Leaving FHI-aims.
          Date     :  20120920, Time     :  210703.069

          Computational steps:
          | Number of self-consistency cycles          :           10

          Detailed time accounting                     :  max(cpu_time)    wall_clock(cpu1)
          | Total time                                 :       17.645 s          17.680 s
          | Preparation time                           :        0.204 s           0.222 s
          | Grid partitioning                          :        0.232 s           0.231 s
          | Preloading free-atom quantities on grid    :        0.096 s           0.095 s
          | Free-atom superposition energy             :        0.168 s           0.168 s
          | Total time for integrations                :        5.072 s           5.066 s
          | Product basis setup: Total time            :        2.756 s           2.759 s
          | Product basis: | 3-center integrations     :        2.256 s           2.258 s
          | Product basis: | 2-center integrations     :        0.464 s           0.465 s
          | Product basis: | 2-center linear algebra   :        0.012 s           0.013 s
          | Product basis: | 3-center x 2-center       :        0.004 s           0.001 s
          | Transforming ovlp_3fn to ovlp_3KS          :        0.004 s           0.002 s
          | Total time for evaluating polarisability   :        0.008 s           0.007 s
          | Total time for RPA corr. energy            :        0.016 s           0.013 s
          | Total time for solution of K.-S. equations :        0.008 s           0.006 s
          | Total time for density update              :        2.988 s           2.976 s
          | Total time for mixing                      :        0.228 s           0.231 s
          | Total time for Hartree multipole update    :        0.132 s           0.123 s
          | Total time for Hartree multipole sum       :        4.752 s           4.760 s
          | Total time for total energy evaluation     :        0.004 s           0.003 s

          Have a nice day.
------------------------------------------------------------
