  MPI-parallelism will be employed.
------------------------------------------------------------
          Invoking FHI-aims ...
          Version 081912
          Git rev. (modified): da8b1f0 Change by Igor:
          Compiled on 2012/08/22 at 21:40:32 on host theobook58.

          When using FHI-aims, please cite the following reference:

          Volker Blum, Ralf Gehrke, Felix Hanke, Paula Havu,
          Ville Havu, Xinguo Ren, Karsten Reuter, and Matthias Scheffler,
          'Ab Initio Molecular Simulations with Numeric Atom-Centered Orbitals: FHI-aims',
          Computer Physics Communications 180, 2175-2196 (2009)

------------------------------------------------------------

  Date     :  20120920, Time     :  210704.201
  Time zero on CPU 1             :   0.200010000000000E-01  s.
  Internal wall clock time zero  :           117407224.201  s.

  Using        2 parallel tasks.
  Task        0 on host theobook58 reporting.
  Task        1 on host theobook58 reporting.

  Performing system and environment tests:
  | Environment variable OMP_NUM_THREADS correctly set to 1.
  | Checking for scalapack...
  | No scalapack compiled in.

  Obtaining array dimensions for all initial allocations:
  
  -----------------------------------------------------------------------
  Parsing control.in (first pass over file, find array dimensions only).
  The contents of control.in will be repeated verbatim below
  unless switched off by setting 'verbatim_writeout .false.' .
  in the first line of control.in .
  -----------------------------------------------------------------------
  
  xc                      pbe
  total_energy_method     rpa
  relativistic            none
  occupation_type         integer 0.0001
  mixer                   pulay
  n_max_pulay             10
  charge_mix_param        0.6
  sc_accuracy_rho         1E-6
  sc_accuracy_eev         1E-4
  sc_accuracy_etot        1E-6
  sc_iter_limit           200
  rpa_frozen_core         1
  charge                  0
  ################################################################################
  #
  #  FHI-aims code project
  # Igor Ying Zhang and Xinguo Ren, Fritz Haber Institute Berlin, 2012
  #
  #  Suggested "cc-pVDZ" defaults for O atom (to be pasted into control.in file)
  #
  ################################################################################
    species        O
  #     global species definitions
      nucleus             8
      mass                15.9994
  #
      l_hartree           6
  #
      cut_pot             4.0  2.0  1.0
      basis_dep_cutoff    0e-0
  #
      radial_base         36 7.0
      radial_multiplier   6
      angular_grids       specified
        division   0.1817   50
        division   0.3417  110
        division   0.4949  194
        division   0.6251  302
        division   0.8014  434
  #      division   0.8507  590
  #      division   0.8762  770
  #      division   0.9023  974
  #      division   1.2339 1202
  #      outer_grid 974
        outer_grid  434
  ################################################################################
  #
  #  Definition of "minimal" basis
  #
  ################################################################################
  #     valence basis states
      valence      2  s   2.
      valence      2  p   4.
  #     ion occupancy
      ion_occ      2  s   1.
      ion_occ      2  p   3.
  ################################################################################
  #
  #   For exact comparison with all GTO-based codes, one or more of
  #   the following flags are needed:
  #
      include_min_basis   .false.
      pure_gauss          .true.
  #
  
  # O cc-pVDZ
   gaussian 0 8
     11720.0000000            0.0007100
      1759.0000000            0.0054700
       400.8000000            0.0278370
       113.7000000            0.1048000
        37.0300000            0.2830620
        13.2700000            0.4487190
         5.0250000            0.2709520
         1.0130000            0.0154580
   gaussian 0 8
     11720.0000000           -0.0001600
      1759.0000000           -0.0012630
       400.8000000           -0.0062670
       113.7000000           -0.0257160
        37.0300000           -0.0709240
        13.2700000           -0.1654110
         5.0250000           -0.1169550
         1.0130000            0.5573680
   gaussian 0 1 0.3023000
   gaussian 1 3
        17.7000000            0.0430180
         3.8540000            0.2289130
         1.0460000            0.5087280
   gaussian 1 1 0.2753000
   gaussian 2 1 1.1850000
  ################################################################################
  #
  #  FHI-aims code project
  # Igor Ying Zhang and Xinguo Ren, Fritz Haber Institute Berlin, 2012
  #
  #  Suggested "cc-pVDZ" defaults for H atom (to be pasted into control.in file)
  #
  ################################################################################
    species        H
  #     global species definitions
      nucleus             1
      mass                1.00794
  #
      l_hartree           6
  #
      cut_pot             4.0  2.0  1.0
      basis_dep_cutoff    0e-0
  #
      radial_base         24 7.0
      radial_multiplier   6
      angular_grids       specified
        division   0.1930   50
        division   0.3175  110
        division   0.4293  194
        division   0.5066  302
        division   0.5626  434
  #      division   0.5922  590
  #      division   0.6227  974
  #      division   0.6868 1202
  #      outer_grid  770
        outer_grid  434
  ################################################################################
  #
  #  Definition of "minimal" basis
  #
  ################################################################################
  #     valence basis states
      valence      1  s   1.
  #     ion occupancy
      ion_occ      1  s   0.5
  ################################################################################
  #
  #   For exact comparison with all GTO-based codes, one or more of
  #   the following flags are needed:
  #
      include_min_basis   .false.
      pure_gauss          .true.
  #
  
  # H cc-pVDZ
   gaussian 0 3
        13.0100000            0.0196850
         1.9620000            0.1379770
         0.4446000            0.4781480
   gaussian 0 1 0.1220000
   gaussian 1 1 0.7270000
  
  -----------------------------------------------------------------------
  Completed first pass over input file control.in .
  -----------------------------------------------------------------------
  
  
  -----------------------------------------------------------------------
  Parsing geometry.in (first pass over file, find array dimensions only).
  The contents of geometry.in will be repeated verbatim below
  unless switched off by setting 'verbatim_writeout .false.' .
  in the first line of geometry.in .
  -----------------------------------------------------------------------
  
  atom     -1.65542049     -0.12330038      0.00000000    O
  atom      1.24621235      0.10268869      0.00000000    O
  atom     -0.70409021      0.03193167      0.00000000    H
  atom     -2.03867258      0.75372288      0.00000000    H
  atom      1.57598546     -0.38252143     -0.75856124    H
  atom      1.57598546     -0.38252143      0.75856124    H
  
  -----------------------------------------------------------------------
  Completed first pass over input file geometry.in .
  -----------------------------------------------------------------------
  

  Basic array size parameters: 
  | Number of species                 :        2
  | Number of atoms                   :        6
  | Max. basis fn. angular momentum   :        2
  | Max. atomic/ionic basis occupied n:        2
  | Max. number of basis fn. types    :        1
  | Max. radial fns per species/type  :        7
  | Max. logarithmic grid size        :     1301
  | Max. radial integration grid size :      221
  | Max. angular integration grid size:      434
  | Max. angular grid division number :        8
  | Radial grid for Hartree potential :     1301
  | Number of spin channels           :        1

------------------------------------------------------------
          Reading file control.in.
------------------------------------------------------------
  XC: Using PBE gradient-corrected functionals.
  RPA correlation energy calculation will be started after the DFT/HF calculation.
  Non-relativistic treatment of kinetic energy.
  Occupation type: Integer occupation.
  Using pulay charge density mixing.
  Pulay mixing - number of memorized iterations:   10
  Charge density mixing - mixing parameter:     0.6000
  Convergence accuracy of self-consistent charge density: 0.1000E-05
  Convergence accuracy of sum of eigenvalues: 0.1000E-03
  Convergence accuracy of total energy: 0.1000E-05
  Maximum number of s.-c. iterations  :   200
  Core electrons are frozen in the RPA calculation :     1
  Charge =   0.000000E+00: Neutral system requested explicitly.

  Reading configuration options for species O                   .
  | Found nuclear charge :   8.0000
  | Found atomic mass :    15.999400000000000      amu
  | Found l_max for Hartree potential  :   6
  | Found cutoff potl. onset [A], width [A], scale factor :    4.00000    2.00000    1.00000
  | Threshold for basis-dependent cutoff potential is   0.000000E+00
  | Found data for basic radial integration grid :    36 points, outermost radius =    7.000 A
  | Found multiplier for basic radial grid :   6
  | Found angular grid specification: user-specified.
  | Specified grid contains     6 separate shells.
  | Check grid settings after all constraints further below.
  | Found free-atom valence shell :  2 s   2.000
  | Found free-atom valence shell :  2 p   4.000
  | No ionic wave fns used. Skipping ion_occ.
  | No ionic wave fns used. Skipping ion_occ.
  | Found request to include minimal basis fns. :     F
  | Found request to include pure gaussian fns. :     T
  | Found contracted cartesian Gaussian basis function :  L = 0 ,   8 elementary Gaussians:
  |   alpha = 0.117200E+05 weight = 0.710000E-03
  |   alpha = 0.175900E+04 weight = 0.547000E-02
  |   alpha = 0.400800E+03 weight = 0.278370E-01
  |   alpha = 0.113700E+03 weight = 0.104800E+00
  |   alpha = 0.370300E+02 weight = 0.283062E+00
  |   alpha = 0.132700E+02 weight = 0.448719E+00
  |   alpha = 0.502500E+01 weight = 0.270952E+00
  |   alpha = 0.101300E+01 weight = 0.154580E-01
  |   In terms of angular momentum, this radial function adds: 
  |     1 s-type basis function
  | Found contracted cartesian Gaussian basis function :  L = 0 ,   8 elementary Gaussians:
  |   alpha = 0.117200E+05 weight = -.160000E-03
  |   alpha = 0.175900E+04 weight = -.126300E-02
  |   alpha = 0.400800E+03 weight = -.626700E-02
  |   alpha = 0.113700E+03 weight = -.257160E-01
  |   alpha = 0.370300E+02 weight = -.709240E-01
  |   alpha = 0.132700E+02 weight = -.165411E+00
  |   alpha = 0.502500E+01 weight = -.116955E+00
  |   alpha = 0.101300E+01 weight = 0.557368E+00
  |   In terms of angular momentum, this radial function adds: 
  |     1 s-type basis function
  | Found primitive cartesian Gaussian basis function :  0 0.302300E+00
  |   In terms of angular momentum, this radial function adds: 
  |     1 s-type basis function
  | Found contracted cartesian Gaussian basis function :  L = 1 ,   3 elementary Gaussians:
  |   alpha = 0.177000E+02 weight = 0.430180E-01
  |   alpha = 0.385400E+01 weight = 0.228913E+00
  |   alpha = 0.104600E+01 weight = 0.508728E+00
  |   In terms of angular momentum, this radial function adds: 
  |     3 p-type basis functions
  | Found primitive cartesian Gaussian basis function :  1 0.275300E+00
  |   In terms of angular momentum, this radial function adds: 
  |     3 p-type basis functions
  | Found primitive cartesian Gaussian basis function :  2 0.118500E+01
  |   In terms of angular momentum, this radial function adds: 
  |     5 d-type basis functions
  Species O                   : Missing cutoff potential type.
  Defaulting to exp(1/x)/(1-x)^2 type cutoff potential.
  Species O : No 'logarithmic' tag. Using default grid for free atom:
  | Default logarithmic grid data [bohr] : 0.1000E-03 0.1000E+03 0.1012E+01
  Species O : On-site basis accuracy parameter (for Gram-Schmidt orthonormalisation) not specified.
  Using default value basis_acc =  0.1000000E-03.
  Species O                   : Using default innermost maximum threshold i_radial=  2 for radial functions.
  Species O                   : Default cutoff onset for free atom density etc. is infinite
  since the product basis is used (hybrid functionals, Hartree-Fock, GW etc.).
  Species O                   : Basic radial grid will be enhanced according to radial_multiplier =   6, to contain   221 grid points.

  Reading configuration options for species H                   .
  | Found nuclear charge :   1.0000
  | Found atomic mass :    1.0079400000000001      amu
  | Found l_max for Hartree potential  :   6
  | Found cutoff potl. onset [A], width [A], scale factor :    4.00000    2.00000    1.00000
  | Threshold for basis-dependent cutoff potential is   0.000000E+00
  | Found data for basic radial integration grid :    24 points, outermost radius =    7.000 A
  | Found multiplier for basic radial grid :   6
  | Found angular grid specification: user-specified.
  | Specified grid contains     6 separate shells.
  | Check grid settings after all constraints further below.
  | Found free-atom valence shell :  1 s   1.000
  | No ionic wave fns used. Skipping ion_occ.
  | Found request to include minimal basis fns. :     F
  | Found request to include pure gaussian fns. :     T
  | Found contracted cartesian Gaussian basis function :  L = 0 ,   3 elementary Gaussians:
  |   alpha = 0.130100E+02 weight = 0.196850E-01
  |   alpha = 0.196200E+01 weight = 0.137977E+00
  |   alpha = 0.444600E+00 weight = 0.478148E+00
  |   In terms of angular momentum, this radial function adds: 
  |     1 s-type basis function
  | Found primitive cartesian Gaussian basis function :  0 0.122000E+00
  |   In terms of angular momentum, this radial function adds: 
  |     1 s-type basis function
  | Found primitive cartesian Gaussian basis function :  1 0.727000E+00
  |   In terms of angular momentum, this radial function adds: 
  |     3 p-type basis functions
  Species H                   : Missing cutoff potential type.
  Defaulting to exp(1/x)/(1-x)^2 type cutoff potential.
  Species H : No 'logarithmic' tag. Using default grid for free atom:
  | Default logarithmic grid data [bohr] : 0.1000E-03 0.1000E+03 0.1012E+01
  Species H : On-site basis accuracy parameter (for Gram-Schmidt orthonormalisation) not specified.
  Using default value basis_acc =  0.1000000E-03.
  Species H                   : Using default innermost maximum threshold i_radial=  2 for radial functions.
  Species H                   : Default cutoff onset for free atom density etc. is infinite
  since the product basis is used (hybrid functionals, Hartree-Fock, GW etc.).
  Species H                   : Basic radial grid will be enhanced according to radial_multiplier =   6, to contain   149 grid points.

  Finished reading input file 'control.in'. Consistency checks are next.

  Species O: Using default value for prodbas_acc =   1.000000E-02.
  Species O: Using default value max_l_prodbas =     5.
  Species H: Using default value for prodbas_acc =   1.000000E-02.
  Species H: Using default value max_l_prodbas =     5.
  Target number of points in a grid batch is not set. Defaulting to  100
  Method for grid partitioning is not set. Defaulting to parallel hash+maxmin partitioning.
  Batch size limit is not set. Defaulting to    200
  By default, will store active basis functions for each batch.
  If in need of memory, prune_basis_once .false. can be used to disable this option.
  communication_type for Hartree potential was not specified.
  Defaulting to calc_hartree .
  Pulay mixer: Number of initial linear mixing iterations not set.
  Defaulting to    0 iterations.
  Work space size for distributed Hartree potential not set.
  Defaulting to   0.200000E+03 MB.
  Algorithm-dependent basis array size parameters:
  | n_max_pulay                         :       10
  Calculation of forces was not defined in control.in. No forces will be calculated.
  Geometry relaxation not requested: no relaxation will be performed.
  No accuracy limit for integral partition fn. given. Defaulting to 0.1000E-14.
  No threshold value for u(r) in integrations given. Defaulting to 0.1000E-05.
  No accuracy for occupation numbers given. Defaulting to 0.1000E-07.
  No threshold value for occupation numbers given. Defaulting to 0.0000E+00.
  No accuracy for fermi level given. Defaulting to 0.1000E-19.
  Maximum # of iterations to find E_F not set. Defaulting to  200.
  Preferred method for the eigenvalue solver ('KS_method') not specified in 'control.in'.
  Calling blacs routine to test compilation state
  The best choice would be 'elpa', but your version of FHI-aims is compiled without scalapack support.
  Defaulting to 'lapack_fast' instead (serial solution, time will not improve with more CPUs).
  Will not use alltoall communication since running on < 1024 CPUs.
  Threshold for basis singularities not set.
  Default threshold for basis singularities: 0.1000E-04
  partition_type (choice of integration weights) for integrals was not specified.
  | Using a version of the partition function of Stratmann and coworkers ('stratmann_smoother').
  | At each grid point, the set of atoms used to build the partition table is smoothly restricted to
  | only those atoms whose free-atom density would be non-zero at that grid point.
  Partitioning for Hartree potential was not defined. Using partition_type for integrals.
  | Adjusted default value of keyword multip_moments_threshold to:       0.10000000E-11
  | This value may affect high angular momentum components of the Hartree potential in periodic systems.
  Spin handling was not defined in control.in. Defaulting to unpolarized case.
  Threshold for auxiliary basis singularities not set.
  Default threshold for auxiliary basis singularities: 0.1000E-04
  * Doing correlated calculations, so all empty single-particle states will be included.
  No q(lm)/r^(l+1) cutoff set for long-range Hartree potential.
  | Using default value of  0.100000E-09 .
  | Verify using the multipole_threshold keyword.
  Defaulting to new monopole extrapolation.
  Density update method: automatic selection selected.
  Default to 1D ("use_logsbt") integrations for auxiliary 2-center integrals.
  Default onset of logarithmic r-grid for SBT is-38.000000000000
  Default onset of logarithmic k-grid for SBT is-25.000000000000
  Default range of logarithmic r- and k-grid for SBT is 45.000000000000
  Default number of logarithmic r- and k-grid for SBT is 16384
------------------------------------------------------------


------------------------------------------------------------
          Reading geometry description geometry.in.
------------------------------------------------------------
  Input structure read successfully.
  The structure contains        6 atoms,  and a total of         20.000 electrons.

  Input geometry:
  | No unit cell requested.
  | Atomic structure:
  |       Atom                x [A]            y [A]            z [A]
  |    1: Species O         -1.655420        -0.123300         0.000000
  |    2: Species O          1.246212         0.102689         0.000000
  |    3: Species H         -0.704090         0.031932         0.000000
  |    4: Species H         -2.038673         0.753723         0.000000
  |    5: Species H          1.575985        -0.382521        -0.758561
  |    6: Species H          1.575985        -0.382521         0.758561
  |
  | Closest distance between atoms is    0.957 AA.

  Structure-dependent array size parameters: 
  | Maximum number of distinct radial functions  :        9
  | Maximum number of basis functions            :       48
  | Number of Kohn-Sham states (occupied + empty):     6010
------------------------------------------------------------

------------------------------------------------------------
          Preparing all fixed parts of the calculation.
------------------------------------------------------------
  Determining machine precision:
    2.22507385850720138E-308
  Setting up grids for atomic and cluster calculations.

  Creating wave function, potential, and density for free atoms.

  Species: O

  List of occupied orbitals and eigenvalues:
    n    l              occ      energy [Ha]    energy [eV]
    1    0           2.0000       -18.898644      -514.2583
    2    0           2.0000        -0.878848       -23.9147
    2    1           4.0000        -0.332128        -9.0377


  Species: H

  List of occupied orbitals and eigenvalues:
    n    l              occ      energy [Ha]    energy [eV]
    1    0           1.0000        -0.238600        -6.4926

  Creating fixed part of basis set: Ionic, confined, hydrogenic.

  O                    Gaussian:

  List of cartesian Gaussian basis orbitals: 
    L    l
    0    0
    0    0
    0    0
    1    1
    1    1
    2    2


  H                    Gaussian:

  List of cartesian Gaussian basis orbitals: 
    L    l
    0    0
    0    0
    1    1


  Adding cutoff potential to free-atom effective potential.
  Creating atomic-like basis functions for current effective potential.
  Assembling full basis from fixed parts.
  | Species O : gaussian orbital   0 s accepted.
  | Species O : gaussian orbital   0 s accepted.
  | Species O : gaussian orbital   0 s accepted.
  | Species O : gaussian orbital   1 p accepted.
  | Species O : gaussian orbital   1 p accepted.
  | Species O : gaussian orbital   2 d accepted.
  | Species H : gaussian orbital   0 s accepted.
  | Species H : gaussian orbital   0 s accepted.
  | Species H : gaussian orbital   1 p accepted.

  * You requested     6010 Kohn-Sham states in the calculation,
  * but there are only       48 available basis states.
  * Reducing total number of  Kohn-Sham states to       48.


  Basis size parameters after reduction:
  | Total number of radial functions:        9
  | Total number of basis functions :       48

  Preparing densities etc. for the partition functions (integrals / Hartree potential).

  Preparations completed.
  max(cpu_time)          :      0.188 s.
  Wall clock time (cpu1) :      0.195 s.
------------------------------------------------------------

------------------------------------------------------------
          Begin self-consistency loop: Initialization.

          Date     :  20120920, Time     :  210704.402
------------------------------------------------------------

  Initializing index lists of integration centers etc. from given atomic structure:
  | Number of centers in hartree potential         :         6
  | Number of centers in hartree multipole         :         6
  | Number of centers in electron density summation:         6
  | Number of centers in basis integrals           :         6
  | Number of centers in integrals                 :         6
  Partitioning the integration grid into batches with parallel hashing+maxmin method.
  | Number of batches:     2934
  | Maximal batch size:     161
  | Minimal batch size:      62
  | Average batch size:     101.673
  | Standard deviation of batch sizes:      33.721

  Integration load balanced across     2 MPI tasks.
  Work distribution over tasks is as follows:
  Task     0 has     149075 integration points.
  Task     1 has     149233 integration points.
  Initializing partition tables, free-atom densities, potentials, etc.
  across the integration grid (initialize_grid_storage).
  | Net number of integration points:   298308
  | of which are non-zero points    :   253174
  Obtaining max. number of non-zero basis functions in each batch (get_n_compute_maxes).
  | Maximal number of non-zero basis functions:       48 in task     0
  | Maximal number of non-zero basis functions:       48 in task     1
  Selecting the method for density update.
  Loop over occupied states selected for charge density update.
  Integrating Hamiltonian matrix: batch-based integration.
  Time summed over all CPUs for integration: real work        1.718 s, elapsed        1.722 s
  Integrating overlap matrix.
  Time summed over all CPUs for integration: real work        0.633 s, elapsed        0.638 s

  Updating Kohn-Sham eigenvalues, eigenvectors, occupation numbers, and Fermi level.
  Solving generalized eigenproblem
  Updating Kohn-Sham eigenvalues and eigenfunctions.
  Transforming overlap matrix and checking for singularities.
  Overlap matrix is nonsingular:
  | Lowest eigenvalue:  0.318079E-01
  Solving real generalised eigenvalue problem by standard LAPACK (fast)
  Determining occupation numbers for Kohn-Sham eigenstates.
  | Chemical potential (Fermi level) in eV                 : -.66058929E+01
  | Error in electron count due to remaining E_F inaccuracy: 0.00000000E+00
  | Maximum occupation number of highest empty state:  0.00E+00

  Writing Kohn-Sham eigenvalues.

  State    Occupation    Eigenvalue [Ha]    Eigenvalue [eV]
      1       2.00000         -19.010347         -517.29786
      2       2.00000         -19.007918         -517.23176
      3       2.00000          -1.106531          -30.11024
      4       2.00000          -1.099272          -29.91270
      5       2.00000          -0.632640          -17.21500
      6       2.00000          -0.631709          -17.18968
      7       2.00000          -0.519369          -14.13275
      8       2.00000          -0.502478          -13.67313
      9       2.00000          -0.440407          -11.98407
     10       2.00000          -0.434608          -11.82629
     11       0.00000          -0.050916           -1.38549
     12       0.00000          -0.009329           -0.25385
     13       0.00000           0.033429            0.90965
     14       0.00000           0.078438            2.13441
     15       0.00000           0.417607           11.36367
     16       0.00000           0.425711           11.58419
     17       0.00000           0.459878           12.51393
     18       0.00000           0.495647           13.48725
     19       0.00000           0.676648           18.41252
     20       0.00000           0.713402           19.41267
     21       0.00000           0.735051           20.00175
     22       0.00000           0.800763           21.78988
     23       0.00000           0.806522           21.94659
     24       0.00000           0.869424           23.65822
     25       0.00000           1.051229           28.60541
     26       0.00000           1.062854           28.92173
     27       0.00000           1.070523           29.13041
     28       0.00000           1.089377           29.64344
     29       0.00000           1.268010           34.50431
     30       0.00000           1.283994           34.93926
     31       0.00000           1.357128           36.92934
     32       0.00000           1.484673           40.40000
     33       0.00000           1.537115           41.82704
     34       0.00000           1.573780           42.82472
     35       0.00000           1.915640           52.12722
     36       0.00000           1.923503           52.34118
     37       0.00000           1.952380           53.12696
     38       0.00000           2.143406           58.32504
     39       0.00000           2.630754           71.58645
     40       0.00000           2.631487           71.60642
     41       0.00000           2.668865           72.62352
     42       0.00000           2.686999           73.11696
     43       0.00000           2.848811           77.52010
     44       0.00000           2.864540           77.94810
     45       0.00000           3.197975           87.02133
     46       0.00000           3.199945           87.07493
     47       0.00000           3.463351           94.24257
     48       0.00000           3.472251           94.48476

  Highest occupied state (VBM) at    -11.82629133 eV
  | Occupation number:      2.00000000

  Lowest unoccupied state (CBM) at    -1.38549450 eV
  | Occupation number:      0.00000000

  Overall HOMO-LUMO gap:     10.44079683 eV.
  Calculating total energy contributions from superposition of free atom densities.

  Total energy components:
  | Sum of eigenvalues            :         -86.77055650 Ha       -2361.14697607 eV
  | XC energy correction          :         -18.05159932 Ha        -491.20900985 eV
  | XC potential correction       :          23.21303094 Ha         631.65871030 eV
  | Free-atom electrostatic energy:         -71.23566293 Ha       -1938.42101408 eV
  | Hartree energy correction     :          -0.00000000 Ha          -0.00000000 eV
  | Entropy correction            :          -0.00000000 Ha          -0.00000000 eV
  | ---------------------------
  | Total energy                  :        -152.84478780 Ha       -4159.11828970 eV
  | Total energy, T -> 0          :        -152.84478780 Ha       -4159.11828970 eV  <-- only rely on this value for actual (periodic) metals
  | Electronic free energy        :        -152.84478780 Ha       -4159.11828970 eV

  Derived energy quantities:
  | Kinetic energy                :         151.16863856 Ha        4113.50794826 eV
  | Electrostatic energy          :        -285.96182705 Ha       -7781.41722811 eV
  | Energy correction for multipole
  | error in Hartree potential    :           0.00000000 Ha           0.00000000 eV
  | Sum of eigenvalues per atom                           :        -393.52449601 eV
  | Total energy (T->0) per atom                          :        -693.18638162 eV  <-- only rely on this value for actual (periodic) metals
  | Electronic free energy per atom                       :        -693.18638162 eV
  Initialize hartree_potential_storage
  Max. number of atoms included in rho_multipole:            6

  End scf initialization - timings             :  max(cpu_time)    wall_clock(cpu1)
  | Time for scf. initialization               :        2.428 s           2.432 s
  | Boundary condition initialization          :        0.000 s           0.000 s
  | Integration                                :        1.180 s           1.180 s
  | Solution of K.-S. eqns.                    :        0.004 s           0.004 s
  | Grid partitioning                          :        0.412 s           0.412 s
  | Preloading free-atom quantities on grid    :        0.100 s           0.098 s
  | Free-atom superposition energy             :        0.300 s           0.301 s
  | Total energy evaluation                    :        0.000 s           0.000 s
------------------------------------------------------------

------------------------------------------------------------
          Begin self-consistency iteration #    1

  Date     :  20120920, Time     :  210706.835
------------------------------------------------------------
  Evaluating new KS density.
  Integration grid: deviation in total charge (<rho> - N_e) =   3.552714E-15
  Pulay mixing of updated and previous charge densities.

  Evaluating partitioned Hartree potential by multipole expansion.
  | Analytical far-field extrapolation by fixed multipoles:
  | Hartree multipole sum: apparent total charge =  -0.485096E-07
  Summing up the Hartree potential.
  Time summed over all CPUs for potential: real work        2.222 s, elapsed        2.225 s
  | RMS charge density error from multipole expansion :   0.380766E-02

  Integrating Hamiltonian matrix: batch-based integration.
  Time summed over all CPUs for integration: real work        1.738 s, elapsed        1.749 s

  Updating Kohn-Sham eigenvalues, eigenvectors, occupation numbers, and Fermi level.
  Solving generalized eigenproblem
  Updating Kohn-Sham eigenvalues and eigenfunctions.
  Solving real generalised eigenvalue problem by standard LAPACK (fast)
  Determining occupation numbers for Kohn-Sham eigenstates.
  | Chemical potential (Fermi level) in eV                 : -.21460855E+01
  | Error in electron count due to remaining E_F inaccuracy: 0.00000000E+00
  | Maximum occupation number of highest empty state:  0.00E+00

  Writing Kohn-Sham eigenvalues.

  State    Occupation    Eigenvalue [Ha]    Eigenvalue [eV]
      1       2.00000         -18.587421         -505.78947
      2       2.00000         -18.515201         -503.82425
      3       2.00000          -0.902731          -24.56455
      4       2.00000          -0.846685          -23.03947
      5       2.00000          -0.465911          -12.67807
      6       2.00000          -0.418010          -11.37464
      7       2.00000          -0.310489           -8.44884
      8       2.00000          -0.252603           -6.87367
      9       2.00000          -0.220059           -5.98810
     10       2.00000          -0.168512           -4.58545
     11       0.00000           0.010778            0.29328
     12       0.00000           0.072800            1.98098
     13       0.00000           0.094907            2.58254
     14       0.00000           0.206926            5.63075
     15       0.00000           0.487139           13.25574
     16       0.00000           0.527497           14.35392
     17       0.00000           0.562533           15.30729
     18       0.00000           0.572477           15.57789
     19       0.00000           0.838169           22.80773
     20       0.00000           0.903350           24.58140
     21       0.00000           0.917179           24.95770
     22       0.00000           0.941481           25.61899
     23       0.00000           0.962785           26.19873
     24       0.00000           1.023360           27.84704
     25       0.00000           1.144790           31.15132
     26       0.00000           1.154993           31.42895
     27       0.00000           1.189976           32.38089
     28       0.00000           1.200262           32.66079
     29       0.00000           1.378213           37.50310
     30       0.00000           1.384893           37.68487
     31       0.00000           1.489960           40.54388
     32       0.00000           1.592104           43.32336
     33       0.00000           1.634553           44.47844
     34       0.00000           1.706443           46.43468
     35       0.00000           2.029633           55.22912
     36       0.00000           2.059718           56.04777
     37       0.00000           2.096224           57.04116
     38       0.00000           2.317979           63.07542
     39       0.00000           2.825207           76.87780
     40       0.00000           2.863735           77.92619
     41       0.00000           2.884507           78.49143
     42       0.00000           2.925863           79.61678
     43       0.00000           3.044680           82.84995
     44       0.00000           3.092811           84.15967
     45       0.00000           3.381054           92.00317
     46       0.00000           3.430895           93.35941
     47       0.00000           3.651488           99.36204
     48       0.00000           3.710511          100.96814

  Highest occupied state (VBM) at     -4.58545196 eV
  | Occupation number:      2.00000000

  Lowest unoccupied state (CBM) at     0.29328105 eV
  | Occupation number:      0.00000000

  Overall HOMO-LUMO gap:      4.87873301 eV.

  Total energy components:
  | Sum of eigenvalues            :         -81.37524313 Ha       -2214.33302970 eV
  | XC energy correction          :         -18.69568414 Ha        -508.73544962 eV
  | XC potential correction       :          24.05661760 Ha         654.61387138 eV
  | Free-atom electrostatic energy:         -71.23566293 Ha       -1938.42101408 eV
  | Hartree energy correction     :          -5.47628120 Ha        -149.01719346 eV
  | Entropy correction            :          -0.00000000 Ha          -0.00000000 eV
  | ---------------------------
  | Total energy                  :        -152.72625380 Ha       -4155.89281548 eV
  | Total energy, T -> 0          :        -152.72625380 Ha       -4155.89281548 eV  <-- only rely on this value for actual (periodic) metals
  | Electronic free energy        :        -152.72625380 Ha       -4155.89281548 eV

  Derived energy quantities:
  | Kinetic energy                :         154.14208662 Ha        4194.41958661 eV
  | Electrostatic energy          :        -288.17265628 Ha       -7841.57695247 eV
  | Energy correction for multipole
  | error in Hartree potential    :          -0.00808582 Ha          -0.22002623 eV
  | Sum of eigenvalues per atom                           :        -369.05550495 eV
  | Total energy (T->0) per atom                          :        -692.64880258 eV  <-- only rely on this value for actual (periodic) metals
  | Electronic free energy per atom                       :        -692.64880258 eV

  Self-consistency convergence accuracy:
  | Change of charge density      : 0.4333E+00
  | Change of sum of eigenvalues  : 0.1468E+03 eV
  | Change of total energy        : 0.3225E+01 eV

  End self-consistency iteration #     1       :  max(cpu_time)    wall_clock(cpu1)
  | Time for this iteration                    :        2.708 s           2.712 s
  | Charge density update                      :        0.688 s           0.689 s
  | Density mixing                             :        0.012 s           0.012 s
  | Hartree multipole update                   :        0.020 s           0.020 s
  | Hartree multipole summation                :        1.112 s           1.114 s
  | Integration                                :        0.876 s           0.875 s
  | Solution of K.-S. eqns.                    :        0.000 s           0.001 s
  | Total energy evaluation                    :        0.000 s           0.000 s
------------------------------------------------------------

------------------------------------------------------------
          Begin self-consistency iteration #    2

  Date     :  20120920, Time     :  210709.547
------------------------------------------------------------
  Evaluating new KS density.
  Integration grid: deviation in total charge (<rho> - N_e) =  -2.486900E-14
  Pulay mixing of updated and previous charge densities.

  Evaluating partitioned Hartree potential by multipole expansion.
  | Analytical far-field extrapolation by fixed multipoles:
  | Hartree multipole sum: apparent total charge =   0.200483E-07
  Summing up the Hartree potential.
  Time summed over all CPUs for potential: real work        2.210 s, elapsed        2.211 s
  | RMS charge density error from multipole expansion :   0.452090E-02

  Integrating Hamiltonian matrix: batch-based integration.
  Time summed over all CPUs for integration: real work        1.721 s, elapsed        1.729 s

  Updating Kohn-Sham eigenvalues, eigenvectors, occupation numbers, and Fermi level.
  Solving generalized eigenproblem
  Updating Kohn-Sham eigenvalues and eigenfunctions.
  Solving real generalised eigenvalue problem by standard LAPACK (fast)
  Determining occupation numbers for Kohn-Sham eigenstates.
  | Chemical potential (Fermi level) in eV                 : -.29026963E+01
  | Error in electron count due to remaining E_F inaccuracy: 0.00000000E+00
  | Maximum occupation number of highest empty state:  0.00E+00

  Highest occupied state (VBM) at     -5.82389536 eV
  | Occupation number:      2.00000000

  Lowest unoccupied state (CBM) at     0.01850273 eV
  | Occupation number:      0.00000000

  Overall HOMO-LUMO gap:      5.84239809 eV.

  Total energy components:
  | Sum of eigenvalues            :         -82.70991525 Ha       -2250.65130581 eV
  | XC energy correction          :         -18.52899898 Ha        -504.19971565 eV
  | XC potential correction       :          23.83809200 Ha         648.66748711 eV
  | Free-atom electrostatic energy:         -71.23566293 Ha       -1938.42101408 eV
  | Hartree energy correction     :          -4.04721826 Ha        -110.13041234 eV
  | Entropy correction            :          -0.00000000 Ha          -0.00000000 eV
  | ---------------------------
  | Total energy                  :        -152.68370342 Ha       -4154.73496077 eV
  | Total energy, T -> 0          :        -152.68370342 Ha       -4154.73496077 eV  <-- only rely on this value for actual (periodic) metals
  | Electronic free energy        :        -152.68370342 Ha       -4154.73496077 eV

  Derived energy quantities:
  | Kinetic energy                :         152.64918848 Ha        4153.79576125 eV
  | Electrostatic energy          :        -286.80389292 Ha       -7804.33100637 eV
  | Energy correction for multipole
  | error in Hartree potential    :          -0.00771298 Ha          -0.20988080 eV
  | Sum of eigenvalues per atom                           :        -375.10855097 eV
  | Total energy (T->0) per atom                          :        -692.45582680 eV  <-- only rely on this value for actual (periodic) metals
  | Electronic free energy per atom                       :        -692.45582680 eV

  Self-consistency convergence accuracy:
  | Change of charge density      : 0.3530E+00
  | Change of sum of eigenvalues  : -.3632E+02 eV
  | Change of total energy        : 0.1158E+01 eV

  End self-consistency iteration #     2       :  max(cpu_time)    wall_clock(cpu1)
  | Time for this iteration                    :        2.684 s           2.687 s
  | Charge density update                      :        0.676 s           0.677 s
  | Density mixing                             :        0.020 s           0.017 s
  | Hartree multipole update                   :        0.020 s           0.020 s
  | Hartree multipole summation                :        1.108 s           1.107 s
  | Integration                                :        0.864 s           0.864 s
  | Solution of K.-S. eqns.                    :        0.004 s           0.001 s
  | Total energy evaluation                    :        0.000 s           0.001 s
------------------------------------------------------------

------------------------------------------------------------
          Begin self-consistency iteration #    3

  Date     :  20120920, Time     :  210712.234
------------------------------------------------------------
  Evaluating new KS density.
  Integration grid: deviation in total charge (<rho> - N_e) =  -8.171241E-14
  Pulay mixing of updated and previous charge densities.

  Evaluating partitioned Hartree potential by multipole expansion.
  | Analytical far-field extrapolation by fixed multipoles:
  | Hartree multipole sum: apparent total charge =   0.101015E-06
  Summing up the Hartree potential.
  Time summed over all CPUs for potential: real work        2.215 s, elapsed        2.219 s
  | RMS charge density error from multipole expansion :   0.628484E-02

  Integrating Hamiltonian matrix: batch-based integration.
  Time summed over all CPUs for integration: real work        1.713 s, elapsed        1.719 s

  Updating Kohn-Sham eigenvalues, eigenvectors, occupation numbers, and Fermi level.
  Solving generalized eigenproblem
  Updating Kohn-Sham eigenvalues and eigenfunctions.
  Solving real generalised eigenvalue problem by standard LAPACK (fast)
  Determining occupation numbers for Kohn-Sham eigenstates.
  | Chemical potential (Fermi level) in eV                 : -.24883628E+01
  | Error in electron count due to remaining E_F inaccuracy: 0.00000000E+00
  | Maximum occupation number of highest empty state:  0.00E+00

  Highest occupied state (VBM) at     -5.28525200 eV
  | Occupation number:      2.00000000

  Lowest unoccupied state (CBM) at     0.30852630 eV
  | Occupation number:      0.00000000

  Overall HOMO-LUMO gap:      5.59377829 eV.

  Total energy components:
  | Sum of eigenvalues            :         -82.50755234 Ha       -2245.14473098 eV
  | XC energy correction          :         -18.56292264 Ha        -505.12282544 eV
  | XC potential correction       :          23.88248173 Ha         649.87539309 eV
  | Free-atom electrostatic energy:         -71.23566293 Ha       -1938.42101408 eV
  | Hartree energy correction     :          -4.25746463 Ha        -115.85150716 eV
  | Entropy correction            :          -0.00000000 Ha          -0.00000000 eV
  | ---------------------------
  | Total energy                  :        -152.68112082 Ha       -4154.66468457 eV
  | Total energy, T -> 0          :        -152.68112082 Ha       -4154.66468457 eV  <-- only rely on this value for actual (periodic) metals
  | Electronic free energy        :        -152.68112082 Ha       -4154.66468457 eV

  Derived energy quantities:
  | Kinetic energy                :         152.01879302 Ha        4136.64182813 eV
  | Electrostatic energy          :        -286.13699120 Ha       -7786.18368725 eV
  | Energy correction for multipole
  | error in Hartree potential    :          -0.00953151 Ha          -0.25936553 eV
  | Sum of eigenvalues per atom                           :        -374.19078850 eV
  | Total energy (T->0) per atom                          :        -692.44411409 eV  <-- only rely on this value for actual (periodic) metals
  | Electronic free energy per atom                       :        -692.44411409 eV

  Self-consistency convergence accuracy:
  | Change of charge density      : 0.9738E-01
  | Change of sum of eigenvalues  : 0.5507E+01 eV
  | Change of total energy        : 0.7028E-01 eV

  End self-consistency iteration #     3       :  max(cpu_time)    wall_clock(cpu1)
  | Time for this iteration                    :        2.676 s           2.678 s
  | Charge density update                      :        0.664 s           0.663 s
  | Density mixing                             :        0.024 s           0.024 s
  | Hartree multipole update                   :        0.020 s           0.020 s
  | Hartree multipole summation                :        1.108 s           1.110 s
  | Integration                                :        0.860 s           0.860 s
  | Solution of K.-S. eqns.                    :        0.000 s           0.001 s
  | Total energy evaluation                    :        0.000 s           0.000 s
------------------------------------------------------------

------------------------------------------------------------
          Begin self-consistency iteration #    4

  Date     :  20120920, Time     :  210714.913
------------------------------------------------------------
  Evaluating new KS density.
  Integration grid: deviation in total charge (<rho> - N_e) =  -5.684342E-14
  Pulay mixing of updated and previous charge densities.

  Evaluating partitioned Hartree potential by multipole expansion.
  | Analytical far-field extrapolation by fixed multipoles:
  | Hartree multipole sum: apparent total charge =   0.100895E-06
  Summing up the Hartree potential.
  Time summed over all CPUs for potential: real work        2.214 s, elapsed        2.220 s
  | RMS charge density error from multipole expansion :   0.625771E-02

  Integrating Hamiltonian matrix: batch-based integration.
  Time summed over all CPUs for integration: real work        1.706 s, elapsed        1.714 s

  Updating Kohn-Sham eigenvalues, eigenvectors, occupation numbers, and Fermi level.
  Solving generalized eigenproblem
  Updating Kohn-Sham eigenvalues and eigenfunctions.
  Solving real generalised eigenvalue problem by standard LAPACK (fast)
  Determining occupation numbers for Kohn-Sham eigenstates.
  | Chemical potential (Fermi level) in eV                 : -.24926378E+01
  | Error in electron count due to remaining E_F inaccuracy: 0.00000000E+00
  | Maximum occupation number of highest empty state:  0.00E+00

  Highest occupied state (VBM) at     -5.26053353 eV
  | Occupation number:      2.00000000

  Lowest unoccupied state (CBM) at     0.27525792 eV
  | Occupation number:      0.00000000

  Overall HOMO-LUMO gap:      5.53579145 eV.

  Total energy components:
  | Sum of eigenvalues            :         -82.54462284 Ha       -2246.15347050 eV
  | XC energy correction          :         -18.55834649 Ha        -504.99830213 eV
  | XC potential correction       :          23.87650144 Ha         649.71266126 eV
  | Free-atom electrostatic energy:         -71.23566293 Ha       -1938.42101408 eV
  | Hartree energy correction     :          -4.21890456 Ha        -114.80223418 eV
  | Entropy correction            :          -0.00000000 Ha          -0.00000000 eV
  | ---------------------------
  | Total energy                  :        -152.68103538 Ha       -4154.66235963 eV
  | Total energy, T -> 0          :        -152.68103538 Ha       -4154.66235963 eV  <-- only rely on this value for actual (periodic) metals
  | Electronic free energy        :        -152.68103538 Ha       -4154.66235963 eV

  Derived energy quantities:
  | Kinetic energy                :         152.00851544 Ha        4136.36216083 eV
  | Electrostatic energy          :        -286.13120432 Ha       -7786.02621833 eV
  | Energy correction for multipole
  | error in Hartree potential    :          -0.00949885 Ha          -0.25847678 eV
  | Sum of eigenvalues per atom                           :        -374.35891175 eV
  | Total energy (T->0) per atom                          :        -692.44372660 eV  <-- only rely on this value for actual (periodic) metals
  | Electronic free energy per atom                       :        -692.44372660 eV

  Self-consistency convergence accuracy:
  | Change of charge density      : 0.1262E-01
  | Change of sum of eigenvalues  : -.1009E+01 eV
  | Change of total energy        : 0.2325E-02 eV

  End self-consistency iteration #     4       :  max(cpu_time)    wall_clock(cpu1)
  | Time for this iteration                    :        2.684 s           2.684 s
  | Charge density update                      :        0.668 s           0.665 s
  | Density mixing                             :        0.032 s           0.029 s
  | Hartree multipole update                   :        0.020 s           0.020 s
  | Hartree multipole summation                :        1.112 s           1.111 s
  | Integration                                :        0.856 s           0.857 s
  | Solution of K.-S. eqns.                    :        0.000 s           0.001 s
  | Total energy evaluation                    :        0.000 s           0.000 s
------------------------------------------------------------

------------------------------------------------------------
          Begin self-consistency iteration #    5

  Date     :  20120920, Time     :  210717.597
------------------------------------------------------------
  Evaluating new KS density.
  Integration grid: deviation in total charge (<rho> - N_e) =  -3.197442E-14
  Pulay mixing of updated and previous charge densities.

  Evaluating partitioned Hartree potential by multipole expansion.
  | Analytical far-field extrapolation by fixed multipoles:
  | Hartree multipole sum: apparent total charge =   0.100811E-06
  Summing up the Hartree potential.
  Time summed over all CPUs for potential: real work        2.211 s, elapsed        2.221 s
  | RMS charge density error from multipole expansion :   0.623624E-02

  Integrating Hamiltonian matrix: batch-based integration.
  Time summed over all CPUs for integration: real work        1.730 s, elapsed        1.748 s

  Updating Kohn-Sham eigenvalues, eigenvectors, occupation numbers, and Fermi level.
  Solving generalized eigenproblem
  Updating Kohn-Sham eigenvalues and eigenfunctions.
  Solving real generalised eigenvalue problem by standard LAPACK (fast)
  Determining occupation numbers for Kohn-Sham eigenstates.
  | Chemical potential (Fermi level) in eV                 : -.25164845E+01
  | Error in electron count due to remaining E_F inaccuracy: 0.00000000E+00
  | Maximum occupation number of highest empty state:  0.00E+00

  Highest occupied state (VBM) at     -5.29727784 eV
  | Occupation number:      2.00000000

  Lowest unoccupied state (CBM) at     0.26430891 eV
  | Occupation number:      0.00000000

  Overall HOMO-LUMO gap:      5.56158675 eV.

  Total energy components:
  | Sum of eigenvalues            :         -82.56662348 Ha       -2246.75213842 eV
  | XC energy correction          :         -18.55547972 Ha        -504.92029334 eV
  | XC potential correction       :          23.87276300 Ha         649.61093298 eV
  | Free-atom electrostatic energy:         -71.23566293 Ha       -1938.42101408 eV
  | Hartree energy correction     :          -4.19602852 Ha        -114.17974553 eV
  | Entropy correction            :          -0.00000000 Ha          -0.00000000 eV
  | ---------------------------
  | Total energy                  :        -152.68103166 Ha       -4154.66225839 eV
  | Total energy, T -> 0          :        -152.68103166 Ha       -4154.66225839 eV  <-- only rely on this value for actual (periodic) metals
  | Electronic free energy        :        -152.68103166 Ha       -4154.66225839 eV

  Derived energy quantities:
  | Kinetic energy                :         152.00681171 Ha        4136.31580009 eV
  | Electrostatic energy          :        -286.13236365 Ha       -7786.05776514 eV
  | Energy correction for multipole
  | error in Hartree potential    :          -0.00948194 Ha          -0.25801664 eV
  | Sum of eigenvalues per atom                           :        -374.45868974 eV
  | Total energy (T->0) per atom                          :        -692.44370973 eV  <-- only rely on this value for actual (periodic) metals
  | Electronic free energy per atom                       :        -692.44370973 eV

  Self-consistency convergence accuracy:
  | Change of charge density      : 0.2347E-02
  | Change of sum of eigenvalues  : -.5987E+00 eV
  | Change of total energy        : 0.1012E-03 eV

  End self-consistency iteration #     5       :  max(cpu_time)    wall_clock(cpu1)
  | Time for this iteration                    :        2.712 s           2.715 s
  | Charge density update                      :        0.672 s           0.670 s
  | Density mixing                             :        0.036 s           0.036 s
  | Hartree multipole update                   :        0.020 s           0.022 s
  | Hartree multipole summation                :        1.112 s           1.111 s
  | Integration                                :        0.872 s           0.874 s
  | Solution of K.-S. eqns.                    :        0.000 s           0.001 s
  | Total energy evaluation                    :        0.000 s           0.000 s
------------------------------------------------------------

------------------------------------------------------------
          Begin self-consistency iteration #    6

  Date     :  20120920, Time     :  210720.312
------------------------------------------------------------
  Evaluating new KS density.
  Integration grid: deviation in total charge (<rho> - N_e) =  -4.263256E-14
  Pulay mixing of updated and previous charge densities.

  Evaluating partitioned Hartree potential by multipole expansion.
  | Analytical far-field extrapolation by fixed multipoles:
  | Hartree multipole sum: apparent total charge =   0.101107E-06
  Summing up the Hartree potential.
  Time summed over all CPUs for potential: real work        2.208 s, elapsed        2.209 s
  | RMS charge density error from multipole expansion :   0.624794E-02

  Integrating Hamiltonian matrix: batch-based integration.
  Time summed over all CPUs for integration: real work        1.727 s, elapsed        1.732 s

  Updating Kohn-Sham eigenvalues, eigenvectors, occupation numbers, and Fermi level.
  Solving generalized eigenproblem
  Updating Kohn-Sham eigenvalues and eigenfunctions.
  Solving real generalised eigenvalue problem by standard LAPACK (fast)
  Determining occupation numbers for Kohn-Sham eigenstates.
  | Chemical potential (Fermi level) in eV                 : -.25120607E+01
  | Error in electron count due to remaining E_F inaccuracy: 0.00000000E+00
  | Maximum occupation number of highest empty state:  0.00E+00

  Highest occupied state (VBM) at     -5.29090963 eV
  | Occupation number:      2.00000000

  Lowest unoccupied state (CBM) at     0.26678819 eV
  | Occupation number:      0.00000000

  Overall HOMO-LUMO gap:      5.55769781 eV.

  Total energy components:
  | Sum of eigenvalues            :         -82.56321519 Ha       -2246.65939409 eV
  | XC energy correction          :         -18.55595386 Ha        -504.93319521 eV
  | XC potential correction       :          23.87338882 Ha         649.62796259 eV
  | Free-atom electrostatic energy:         -71.23566293 Ha       -1938.42101408 eV
  | Hartree energy correction     :          -4.19958874 Ha        -114.27662402 eV
  | Entropy correction            :          -0.00000000 Ha          -0.00000000 eV
  | ---------------------------
  | Total energy                  :        -152.68103190 Ha       -4154.66226481 eV
  | Total energy, T -> 0          :        -152.68103190 Ha       -4154.66226481 eV  <-- only rely on this value for actual (periodic) metals
  | Electronic free energy        :        -152.68103190 Ha       -4154.66226481 eV

  Derived energy quantities:
  | Kinetic energy                :         152.00670130 Ha        4136.31279556 eV
  | Electrostatic energy          :        -286.13177934 Ha       -7786.04186516 eV
  | Energy correction for multipole
  | error in Hartree potential    :          -0.00950450 Ha          -0.25863069 eV
  | Sum of eigenvalues per atom                           :        -374.44323235 eV
  | Total energy (T->0) per atom                          :        -692.44371080 eV  <-- only rely on this value for actual (periodic) metals
  | Electronic free energy per atom                       :        -692.44371080 eV

  Self-consistency convergence accuracy:
  | Change of charge density      : 0.5007E-03
  | Change of sum of eigenvalues  : 0.9274E-01 eV
  | Change of total energy        : -.6422E-05 eV

  End self-consistency iteration #     6       :  max(cpu_time)    wall_clock(cpu1)
  | Time for this iteration                    :        2.700 s           2.703 s
  | Charge density update                      :        0.672 s           0.672 s
  | Density mixing                             :        0.040 s           0.039 s
  | Hartree multipole update                   :        0.020 s           0.019 s
  | Hartree multipole summation                :        1.104 s           1.105 s
  | Integration                                :        0.868 s           0.866 s
  | Solution of K.-S. eqns.                    :        0.000 s           0.001 s
  | Total energy evaluation                    :        0.000 s           0.000 s
------------------------------------------------------------

------------------------------------------------------------
          Begin self-consistency iteration #    7

  Date     :  20120920, Time     :  210723.015
------------------------------------------------------------
  Evaluating new KS density.
  Integration grid: deviation in total charge (<rho> - N_e) =  -7.105427E-15
  Pulay mixing of updated and previous charge densities.

  Evaluating partitioned Hartree potential by multipole expansion.
  | Analytical far-field extrapolation by fixed multipoles:
  | Hartree multipole sum: apparent total charge =   0.101146E-06
  Summing up the Hartree potential.
  Time summed over all CPUs for potential: real work        2.214 s, elapsed        2.224 s
  | RMS charge density error from multipole expansion :   0.624884E-02

  Integrating Hamiltonian matrix: batch-based integration.
  Time summed over all CPUs for integration: real work        1.720 s, elapsed        1.738 s

  Updating Kohn-Sham eigenvalues, eigenvectors, occupation numbers, and Fermi level.
  Solving generalized eigenproblem
  Updating Kohn-Sham eigenvalues and eigenfunctions.
  Solving real generalised eigenvalue problem by standard LAPACK (fast)
  Determining occupation numbers for Kohn-Sham eigenstates.
  | Chemical potential (Fermi level) in eV                 : -.25120217E+01
  | Error in electron count due to remaining E_F inaccuracy: 0.00000000E+00
  | Maximum occupation number of highest empty state:  0.00E+00

  Highest occupied state (VBM) at     -5.29097942 eV
  | Occupation number:      2.00000000

  Lowest unoccupied state (CBM) at     0.26693596 eV
  | Occupation number:      0.00000000

  Overall HOMO-LUMO gap:      5.55791539 eV.

  Total energy components:
  | Sum of eigenvalues            :         -82.56325742 Ha       -2246.66054315 eV
  | XC energy correction          :         -18.55595271 Ha        -504.93316400 eV
  | XC potential correction       :          23.87338800 Ha         649.62794009 eV
  | Free-atom electrostatic energy:         -71.23566293 Ha       -1938.42101408 eV
  | Hartree energy correction     :          -4.19954685 Ha        -114.27548404 eV
  | Entropy correction            :          -0.00000000 Ha          -0.00000000 eV
  | ---------------------------
  | Total energy                  :        -152.68103191 Ha       -4154.66226518 eV
  | Total energy, T -> 0          :        -152.68103191 Ha       -4154.66226518 eV  <-- only rely on this value for actual (periodic) metals
  | Electronic free energy        :        -152.68103191 Ha       -4154.66226518 eV

  Derived energy quantities:
  | Kinetic energy                :         152.00669735 Ha        4136.31268818 eV
  | Electrostatic energy          :        -286.13177655 Ha       -7786.04178936 eV
  | Energy correction for multipole
  | error in Hartree potential    :          -0.00950684 Ha          -0.25869431 eV
  | Sum of eigenvalues per atom                           :        -374.44342386 eV
  | Total energy (T->0) per atom                          :        -692.44371086 eV  <-- only rely on this value for actual (periodic) metals
  | Electronic free energy per atom                       :        -692.44371086 eV

  Self-consistency convergence accuracy:
  | Change of charge density      : 0.6030E-04
  | Change of sum of eigenvalues  : -.1149E-02 eV
  | Change of total energy        : -.3737E-06 eV

  End self-consistency iteration #     7       :  max(cpu_time)    wall_clock(cpu1)
  | Time for this iteration                    :        2.708 s           2.710 s
  | Charge density update                      :        0.660 s           0.662 s
  | Density mixing                             :        0.048 s           0.045 s
  | Hartree multipole update                   :        0.020 s           0.019 s
  | Hartree multipole summation                :        1.112 s           1.113 s
  | Integration                                :        0.868 s           0.869 s
  | Solution of K.-S. eqns.                    :        0.000 s           0.001 s
  | Total energy evaluation                    :        0.000 s           0.000 s
------------------------------------------------------------

------------------------------------------------------------
          Begin self-consistency iteration #    8

  Date     :  20120920, Time     :  210725.725
------------------------------------------------------------
  Evaluating new KS density.
  Integration grid: deviation in total charge (<rho> - N_e) =   7.105427E-15
  Pulay mixing of updated and previous charge densities.

  Evaluating partitioned Hartree potential by multipole expansion.
  | Analytical far-field extrapolation by fixed multipoles:
  | Hartree multipole sum: apparent total charge =   0.101151E-06
  Summing up the Hartree potential.
  Time summed over all CPUs for potential: real work        2.207 s, elapsed        2.210 s
  | RMS charge density error from multipole expansion :   0.624890E-02

  Integrating Hamiltonian matrix: batch-based integration.
  Time summed over all CPUs for integration: real work        1.714 s, elapsed        1.734 s

  Updating Kohn-Sham eigenvalues, eigenvectors, occupation numbers, and Fermi level.
  Solving generalized eigenproblem
  Updating Kohn-Sham eigenvalues and eigenfunctions.
  Solving real generalised eigenvalue problem by standard LAPACK (fast)
  Determining occupation numbers for Kohn-Sham eigenstates.
  | Chemical potential (Fermi level) in eV                 : -.25120270E+01
  | Error in electron count due to remaining E_F inaccuracy: 0.00000000E+00
  | Maximum occupation number of highest empty state:  0.00E+00

  Highest occupied state (VBM) at     -5.29099865 eV
  | Occupation number:      2.00000000

  Lowest unoccupied state (CBM) at     0.26694464 eV
  | Occupation number:      0.00000000

  Overall HOMO-LUMO gap:      5.55794329 eV.

  Total energy components:
  | Sum of eigenvalues            :         -82.56327320 Ha       -2246.66097272 eV
  | XC energy correction          :         -18.55595133 Ha        -504.93312634 eV
  | XC potential correction       :          23.87338629 Ha         649.62789355 eV
  | Free-atom electrostatic energy:         -71.23566293 Ha       -1938.42101408 eV
  | Hartree energy correction     :          -4.19953073 Ha        -114.27504553 eV
  | Entropy correction            :          -0.00000000 Ha          -0.00000000 eV
  | ---------------------------
  | Total energy                  :        -152.68103191 Ha       -4154.66226511 eV
  | Total energy, T -> 0          :        -152.68103191 Ha       -4154.66226511 eV  <-- only rely on this value for actual (periodic) metals
  | Electronic free energy        :        -152.68103191 Ha       -4154.66226511 eV

  Derived energy quantities:
  | Kinetic energy                :         152.00671983 Ha        4136.31329986 eV
  | Electrostatic energy          :        -286.13180041 Ha       -7786.04243863 eV
  | Energy correction for multipole
  | error in Hartree potential    :          -0.00950709 Ha          -0.25870109 eV
  | Sum of eigenvalues per atom                           :        -374.44349545 eV
  | Total energy (T->0) per atom                          :        -692.44371085 eV  <-- only rely on this value for actual (periodic) metals
  | Electronic free energy per atom                       :        -692.44371085 eV

  Self-consistency convergence accuracy:
  | Change of charge density      : 0.1072E-04
  | Change of sum of eigenvalues  : -.4296E-03 eV
  | Change of total energy        : 0.6847E-07 eV

  End self-consistency iteration #     8       :  max(cpu_time)    wall_clock(cpu1)
  | Time for this iteration                    :        2.716 s           2.718 s
  | Charge density update                      :        0.672 s           0.673 s
  | Density mixing                             :        0.052 s           0.051 s
  | Hartree multipole update                   :        0.020 s           0.019 s
  | Hartree multipole summation                :        1.104 s           1.106 s
  | Integration                                :        0.868 s           0.867 s
  | Solution of K.-S. eqns.                    :        0.004 s           0.001 s
  | Total energy evaluation                    :        0.000 s           0.000 s
------------------------------------------------------------

------------------------------------------------------------
          Begin self-consistency iteration #    9

  Date     :  20120920, Time     :  210728.443
------------------------------------------------------------
  Evaluating new KS density.
  Integration grid: deviation in total charge (<rho> - N_e) =  -8.526513E-14
  Pulay mixing of updated and previous charge densities.

  Evaluating partitioned Hartree potential by multipole expansion.
  | Analytical far-field extrapolation by fixed multipoles:
  | Hartree multipole sum: apparent total charge =   0.101152E-06
  Summing up the Hartree potential.
  Time summed over all CPUs for potential: real work        2.257 s, elapsed        2.306 s
  | RMS charge density error from multipole expansion :   0.624891E-02

  Integrating Hamiltonian matrix: batch-based integration.
  Time summed over all CPUs for integration: real work        1.783 s, elapsed        1.861 s

  Updating Kohn-Sham eigenvalues, eigenvectors, occupation numbers, and Fermi level.
  Solving generalized eigenproblem
  Updating Kohn-Sham eigenvalues and eigenfunctions.
  Solving real generalised eigenvalue problem by standard LAPACK (fast)
  Determining occupation numbers for Kohn-Sham eigenstates.
  | Chemical potential (Fermi level) in eV                 : -.25120302E+01
  | Error in electron count due to remaining E_F inaccuracy: 0.00000000E+00
  | Maximum occupation number of highest empty state:  0.00E+00

  Highest occupied state (VBM) at     -5.29100767 eV
  | Occupation number:      2.00000000

  Lowest unoccupied state (CBM) at     0.26694718 eV
  | Occupation number:      0.00000000

  Overall HOMO-LUMO gap:      5.55795484 eV.

  Total energy components:
  | Sum of eigenvalues            :         -82.56327857 Ha       -2246.66111880 eV
  | XC energy correction          :         -18.55595087 Ha        -504.93311381 eV
  | XC potential correction       :          23.87338571 Ha         649.62787778 eV
  | Free-atom electrostatic energy:         -71.23566293 Ha       -1938.42101408 eV
  | Hartree energy correction     :          -4.19952525 Ha        -114.27489620 eV
  | Entropy correction            :          -0.00000000 Ha          -0.00000000 eV
  | ---------------------------
  | Total energy                  :        -152.68103191 Ha       -4154.66226510 eV
  | Total energy, T -> 0          :        -152.68103191 Ha       -4154.66226510 eV  <-- only rely on this value for actual (periodic) metals
  | Electronic free energy        :        -152.68103191 Ha       -4154.66226510 eV

  Derived energy quantities:
  | Kinetic energy                :         152.00671757 Ha        4136.31323851 eV
  | Electrostatic energy          :        -286.13179862 Ha       -7786.04238980 eV
  | Energy correction for multipole
  | error in Hartree potential    :          -0.00950713 Ha          -0.25870208 eV
  | Sum of eigenvalues per atom                           :        -374.44351980 eV
  | Total energy (T->0) per atom                          :        -692.44371085 eV  <-- only rely on this value for actual (periodic) metals
  | Electronic free energy per atom                       :        -692.44371085 eV

  Self-consistency convergence accuracy:
  | Change of charge density      : 0.1773E-05
  | Change of sum of eigenvalues  : -.1461E-03 eV
  | Change of total energy        : 0.1334E-07 eV

  End self-consistency iteration #     9       :  max(cpu_time)    wall_clock(cpu1)
  | Time for this iteration                    :        2.820 s           2.825 s
  | Charge density update                      :        0.664 s           0.664 s
  | Density mixing                             :        0.056 s           0.054 s
  | Hartree multipole update                   :        0.020 s           0.019 s
  | Hartree multipole summation                :        1.156 s           1.154 s
  | Integration                                :        0.932 s           0.931 s
  | Solution of K.-S. eqns.                    :        0.000 s           0.001 s
  | Total energy evaluation                    :        0.000 s           0.001 s
------------------------------------------------------------

------------------------------------------------------------
          Begin self-consistency iteration #   10

  Date     :  20120920, Time     :  210731.268
------------------------------------------------------------
  Evaluating new KS density.
  Integration grid: deviation in total charge (<rho> - N_e) =  -8.526513E-14
  Pulay mixing of updated and previous charge densities.

  Evaluating partitioned Hartree potential by multipole expansion.
  | Analytical far-field extrapolation by fixed multipoles:
  | Hartree multipole sum: apparent total charge =   0.101152E-06
  Summing up the Hartree potential.
  Time summed over all CPUs for potential: real work        2.272 s, elapsed        2.323 s
  | RMS charge density error from multipole expansion :   0.624892E-02

  Integrating Hamiltonian matrix: batch-based integration.
  Time summed over all CPUs for integration: real work        1.778 s, elapsed        1.877 s

  Updating Kohn-Sham eigenvalues, eigenvectors, occupation numbers, and Fermi level.
  Solving generalized eigenproblem
  Updating Kohn-Sham eigenvalues and eigenfunctions.
  Solving real generalised eigenvalue problem by standard LAPACK (fast)
  Determining occupation numbers for Kohn-Sham eigenstates.
  | Chemical potential (Fermi level) in eV                 : -.25120283E+01
  | Error in electron count due to remaining E_F inaccuracy: 0.00000000E+00
  | Maximum occupation number of highest empty state:  0.00E+00

  Highest occupied state (VBM) at     -5.29100537 eV
  | Occupation number:      2.00000000

  Lowest unoccupied state (CBM) at     0.26694876 eV
  | Occupation number:      0.00000000

  Overall HOMO-LUMO gap:      5.55795413 eV.

  Total energy components:
  | Sum of eigenvalues            :         -82.56327714 Ha       -2246.66107985 eV
  | XC energy correction          :         -18.55595107 Ha        -504.93311946 eV
  | XC potential correction       :          23.87338598 Ha         649.62788527 eV
  | Free-atom electrostatic energy:         -71.23566293 Ha       -1938.42101408 eV
  | Hartree energy correction     :          -4.19952675 Ha        -114.27493698 eV
  | Entropy correction            :          -0.00000000 Ha          -0.00000000 eV
  | ---------------------------
  | Total energy                  :        -152.68103191 Ha       -4154.66226510 eV
  | Total energy, T -> 0          :        -152.68103191 Ha       -4154.66226510 eV  <-- only rely on this value for actual (periodic) metals
  | Electronic free energy        :        -152.68103191 Ha       -4154.66226510 eV

  Derived energy quantities:
  | Kinetic energy                :         152.00671708 Ha        4136.31322503 eV
  | Electrostatic energy          :        -286.13179791 Ha       -7786.04237067 eV
  | Energy correction for multipole
  | error in Hartree potential    :          -0.00950713 Ha          -0.25870222 eV
  | Sum of eigenvalues per atom                           :        -374.44351331 eV
  | Total energy (T->0) per atom                          :        -692.44371085 eV  <-- only rely on this value for actual (periodic) metals
  | Electronic free energy per atom                       :        -692.44371085 eV

  Self-consistency convergence accuracy:
  | Change of charge density      : 0.2156E-06
  | Change of sum of eigenvalues  : 0.3895E-04 eV
  | Change of total energy        : 0.6427E-09 eV

  Writing Kohn-Sham eigenvalues.

  State    Occupation    Eigenvalue [Ha]    Eigenvalue [eV]
      1       2.00000         -18.778913         -511.00023
      2       2.00000         -18.704601         -508.97808
      3       2.00000          -0.938742          -25.54448
      4       2.00000          -0.867916          -23.61718
      5       2.00000          -0.490099          -13.33627
      6       2.00000          -0.426720          -11.61163
      7       2.00000          -0.344897           -9.38514
      8       2.00000          -0.278192           -7.56999
      9       2.00000          -0.257118           -6.99653
     10       2.00000          -0.194441           -5.29101
     11       0.00000           0.009810            0.26695
     12       0.00000           0.079438            2.16162
     13       0.00000           0.089908            2.44653
     14       0.00000           0.202266            5.50393
     15       0.00000           0.489660           13.32431
     16       0.00000           0.541921           14.74643
     17       0.00000           0.567571           15.44440
     18       0.00000           0.585824           15.94109
     19       0.00000           0.811794           22.09003
     20       0.00000           0.890724           24.23783
     21       0.00000           0.891633           24.26256
     22       0.00000           0.918368           24.99007
     23       0.00000           0.933091           25.39070
     24       0.00000           1.014015           27.59274
     25       0.00000           1.149965           31.29214
     26       0.00000           1.150307           31.30145
     27       0.00000           1.201326           32.68975
     28       0.00000           1.220740           33.21804
     29       0.00000           1.379920           37.54953
     30       0.00000           1.403966           38.20386
     31       0.00000           1.477897           40.21562
     32       0.00000           1.601329           43.57437
     33       0.00000           1.643636           44.72561
     34       0.00000           1.711196           46.56401
     35       0.00000           2.016184           54.86316
     36       0.00000           2.046505           55.68822
     37       0.00000           2.095861           57.03127
     38       0.00000           2.311639           62.90290
     39       0.00000           2.796358           76.09279
     40       0.00000           2.835189           77.14941
     41       0.00000           2.868399           78.05311
     42       0.00000           2.909518           79.17200
     43       0.00000           3.015113           82.04541
     44       0.00000           3.077584           83.74532
     45       0.00000           3.353261           91.24687
     46       0.00000           3.417025           92.98199
     47       0.00000           3.618294           98.45880
     48       0.00000           3.691380          100.44755

  Highest occupied state (VBM) at     -5.29100537 eV
  | Occupation number:      2.00000000

  Lowest unoccupied state (CBM) at     0.26694876 eV
  | Occupation number:      0.00000000

  Overall HOMO-LUMO gap:      5.55795413 eV.

  Self-consistency cycle converged.

  End self-consistency iteration #    10       :  max(cpu_time)    wall_clock(cpu1)
  | Time for this iteration                    :        2.892 s           2.894 s
  | Charge density update                      :        0.708 s           0.708 s
  | Density mixing                             :        0.060 s           0.061 s
  | Hartree multipole update                   :        0.020 s           0.020 s
  | Hartree multipole summation                :        1.164 s           1.163 s
  | Integration                                :        0.936 s           0.938 s
  | Solution of K.-S. eqns.                    :        0.000 s           0.001 s
  | Total energy evaluation                    :        0.004 s           0.000 s
------------------------------------------------------------

  Energy and forces in a compact form:
  | Total energy uncorrected      :         -0.415466226509990E+04 eV
  | Total energy corrected        :         -0.415466226509990E+04 eV  <-- only rely on this value for actual (periodic) metals
  | Electronic free energy        :         -0.415466226509990E+04 eV

  ------------------------------------ 
  Start decomposition of the XC Energy 
  ------------------------------------ 
  Hartree-Fock part   :          0.000000000 Ha              0.000000000 eV
  ------------------------------------ 
  X Energy            :        -17.891619840 Ha           -486.855746794 eV
  C Energy GGA        :         -0.664331235 Ha            -18.077372666 eV
  Total XC Energy     :        -18.555951075 Ha           -504.933119460 eV
  LDA X and C from self-consistent density 
  X Energy LDA        :        -16.269640064 Ha           -442.719431448 eV
  C Energy LDA        :         -1.326338233 Ha            -36.091499638 eV
  ------------------------------------ 
  End decomposition of the XC Energy 
  ------------------------------------ 

 --------------------------------------------
  Constructing auxiliary basis (full product) ...

  Product basis:
  | charge radius: extent of product basis function
  | field radius: extent of its Coulomb potential
  | Species   l  charge radius    field radius  multipol momen
  |    O      0     1.898511 A      1.898511 A    8.6632E-17 a.u.
  |    O      1     2.018177 A      2.018177 A   -2.0158E-17 a.u.
  |    O      0     2.043000 A      2.043000 A   -5.2036E-17 a.u.
  |    O      0     2.577176 A      2.577176 A    8.1757E-17 a.u.
  |    O      1     2.577176 A      2.577176 A    1.0505E-17 a.u.
  |    O      3     2.577176 A      2.577176 A    1.5257E-16 a.u.
  |    O      3     2.608875 A      2.608875 A    8.9488E-18 a.u.
  |    O      2     2.640965 A      2.640965 A   -1.3057E-17 a.u.
  |    O      0     3.764702 A      3.764702 A    5.7509E-17 a.u.
  |    O      1     3.905335 A      3.905335 A   -2.1380E-16 a.u.
  |    O      1     3.905335 A      3.905335 A   -1.6749E-17 a.u.
  |    O      2     4.001998 A      4.001998 A   -5.1479E-16 a.u.
  |    O      2     4.051222 A      4.051222 A   -7.3859E-16 a.u.
  |    O      4     2.093567 A    1.8915E+02 A      0.464268 a.u.
  |    O      3     2.640965 A    1.0378E+03 A      1.177223 a.u.
  |    O      2     4.101052 A    1.4442E+04 A      1.617496 a.u.
  |    O      1     3.953371 A    1.5995E+06 A      0.727023 a.u.
  |    O      0     3.718959 A    2.8977E+12 A      0.435758 a.u.
  |    H      1     3.215356 A      3.215356 A    4.6346E-17 a.u.
  |    H      0     3.815562 A      3.815562 A    1.8667E-16 a.u.
  |    H      0     5.781930 A      5.781930 A    2.0489E-16 a.u.
  |    H      2     2.517934 A    8.6084E+03 A      0.342576 a.u.
  |    H      1     3.254905 A    1.2873E+06 A      0.470947 a.u.
  |    H      0     5.711676 A    3.4615E+12 A      0.520541 a.u.

  | Shrink_full_auxil_basis : there are       24  radial auxiliary wave functions
                            accepted and      19 rejected.
  | Shrink_full_auxil_basis : there are totally     196 partial auxiliary wave functions.

  | Number of product basis functions per thread :    98
  | Minimal requirement for computer memories :           0.002 Gbs

  Basis pair condensation :      1176  -->       1176

 ----------------------------------------------------
  Integrating the 3-basis-function Coulomb matrix ...
  | i_atom:            1
  | i_atom:            2
  | i_atom:            3
  | i_atom:            4
  | i_atom:            5
  | i_atom:            6
  Integrating the Coulomb interaction matrix for auxiliary basis functions (by atoms)

  SBT integration errors (all should be 'small'):
  large logFT aliasing -> increase N/lnrange
  large SBT aliasing -> decrease lnk0 & increase lnk0+lnrange
  large SBT ringing -> decrease lnr0 & increase lnr0+lnrange
  |            El't  L: logFT-al.   small-k   large-k   small-r   large-r
  | Errors for    O  0:  9.08E-16  2.21E-46  5.82-103  1.20E-47  0.00E+00
  | Errors for    O  1:  1.06E-15  2.00E-57  1.37E-98  7.90E-64  0.00E+00
  | Errors for    O  0:  2.13E-15  1.21E-45  7.70-108  6.83E-48  0.00E+00
  | Errors for    O  0:  8.81E-16  3.59E-45  0.00E+00  3.20E-48  0.00E+00
  | Errors for    O  1:  8.28E-15  1.34E-56  1.63E-89  4.68E-64  0.00E+00
  | Errors for    O  3:  9.70E-14  7.32E-58  0.00E+00  9.71E-98  0.00E+00
  | Errors for    O  3:  3.41E-13  1.09E-57  3.03E-58  2.90E-97  0.00E+00
  | Errors for    O  2:  1.92E-14  3.45E-68  0.00E+00  7.72E-81  0.00E+00
  | Errors for    O  0:  1.09E-15  9.60E-45  6.68-110  6.37E-50  0.00E+00
  | Errors for    O  1:  1.23E-14  6.30E-56  5.88E-91  1.65E-64  0.00E+00
  | Errors for    O  1:  4.42E-13  5.69E-56  1.97E-34  1.09E-64  0.00E+00
  | Errors for    O  2:  1.11E-13  2.08E-67  2.55E-95  1.07E-79  0.00E+00
  | Errors for    O  2:  2.79E-14  3.07E-67  0.00E+00  7.42E-81  0.00E+00
  | Errors for    O  4:  9.68E-14  1.32E-46  0.00E+00  5.33-115  0.00E+00
  | Errors for    O  3:  5.19E-13  1.68E-34  1.16E-53  1.38E-97  0.00E+00
  | Errors for    O  2:  3.55E-14  1.60E-44  2.04E-63  3.55E-80  0.00E+00
  | Errors for    O  1:  2.12E-13  1.55E-33  4.19-109  1.48E-65  0.00E+00
  | Errors for    O  0:  6.28E-16  6.71E-23  1.89E-88  1.46E-49  0.00E+00
  | Errors for    H  1:  1.70E-14  2.87E-56  1.44-277  8.46E-66  0.00E+00
  | Errors for    H  0:  2.01E-15  6.26E-45  3.11-238  1.83E-49  0.00E+00
  | Errors for    H  0:  2.75E-15  2.31E-44  1.41-245  1.93E-49  0.00E+00
  | Errors for    H  2:  4.55E-15  3.39E-45  0.00E+00  1.18E-82  0.00E+00
  | Errors for    H  1:  1.90E-14  1.01E-33  1.12-274  5.88E-66  0.00E+00
  | Errors for    H  0:  4.71E-16  8.01E-23  2.62-232  6.02E-50  0.00E+00

  Atomic logSBT for 2-center Coulomb matrix    :  max(cpu_time)    wall_clock(cpu1)
  | Multiplication with kernel                 :        0.060 s           0.057 s
  | Main matrix multiplication                 :        0.056 s           0.056 s
  | Analytic angular integration               :        0.024 s           0.004 s
  | Kernel construction                        :        0.048 s           0.019 s
  | Overall 2-center overlap time              :        0.240 s           0.149 s

  Difference of Coulomb matrix to its transposed:  2.7756E-16
  Task     0: Eigenvalues of the Coulomb matrix range from    4.4756E+00 to    1.6201E-04.
  Task     0: Using      196   eigenvalues out of rank      196   Coulomb matrix (auxiliary basis).

  Multiplying V^-0.5 x ovlp_3fn (1d-scalapack)

  End of correlation preparation               :  max(cpu_time)    wall_clock(cpu1)
  | Product basis setup: Total time            :        8.445 s           8.453 s
  | Product basis: | 3-center integrations     :        7.784 s           7.785 s
  | Product basis: | 2-center integrations     :        0.592 s           0.593 s
  | Product basis: | 2-center linear algebra   :        0.044 s           0.042 s
  | Product basis: | 3-center x 2-center       :        0.008 s           0.007 s

--------------------------------------------
          RPA total energy calculation starts ...

  The first valence state in the frozen-core algorithm :    3
  The ovlp_3KS matrix takes another      1 MiB x      2 procs =       0.001 GiB.


  Initialising transformed Gauss-Legendre time and frequency grids
  Number of freuency points for self energy.....: 40
  Number of frequency points....................: 40

  Starts to calculate the exchange energy ...

  Integrating the xc potential matrix  for basis functions ...

  Starts to calculate the single excitation correction ...

  | Single excitation contribution to the correlation energy:  -0.37926282 eV
  | Renormalized single excitation contribution (diag) to the correlation energy:  -0.26510233  eV


  Starts to calculate the renormalized single excitation (full) correction ...
  Diagonalizing the RSE-HF-Occ matrix  and checking for singularities.

  Diagonalizing the RSE-HF-Unocc matrix  and checking for singularities.


  | Renormalized single excitation contribution (full) to the correlation energy:  -0.26474999  eV


 ----------------------------------- ------------------------------------
  Start to calculate the RPA correlation energy  ... 
  HOMO and first non-fully-occupied orbitals:   10   11

 | i_freq    1            0.000441
 | i_freq    2            0.002329
 | i_freq    3            0.005750
 | i_freq    4            0.010747
 | i_freq    5            0.017381
 | i_freq    6            0.025735
 | i_freq    7            0.035917
 | i_freq    8            0.048062
 | i_freq    9            0.062333
 | i_freq   10            0.078932
 | i_freq   11            0.098102
 | i_freq   12            0.120134
 | i_freq   13            0.145383
 | i_freq   14            0.174274
 | i_freq   15            0.207324
 | i_freq   16            0.245160
 | i_freq   17            0.288549
 | i_freq   18            0.338436
 | i_freq   19            0.395990
 | i_freq   20            0.462675
 | i_freq   21            0.540336
 | i_freq   22            0.631329
 | i_freq   23            0.738693
 | i_freq   24            0.866404
 | i_freq   25            1.019743
 | i_freq   26            1.205842
 | i_freq   27            1.434520
 | i_freq   28            1.719594
 | i_freq   29            2.081004
 | i_freq   30            2.548378
 | i_freq   31            3.167279
 | i_freq   32            4.010715
 | i_freq   33            5.201652
 | i_freq   34            6.960432
 | i_freq   35            9.714380
 | i_freq   36           14.383789
 | i_freq   37           23.262462
 | i_freq   38           43.475277
 | i_freq   39          107.331113
 | i_freq   40          566.943404

 -----------------------------------------------------------------------------
    RPA correlation energy :          -0.61401822  Ha,       -16.70828574  eV

 --------------------------------------------------------------------
    Exact exchange energy             :          -17.92558014 Ha,        -487.77985361 eV
    DFT/HF exchange energy            :          -16.26964006 Ha,        -442.71943145 eV

    DFT/HF total energy               :         -152.68103191 Ha,       -4154.66226510 eV
    Exchange-only total energy        :         -152.05066097 Ha,       -4137.50899925 eV
    RPA total energy                  :         -152.66467919 Ha,       -4154.21728499 eV

    RPA+SE total energy               :         -152.67861684 Ha,       -4154.59654782 eV
    RPA+rSE (diag) total energy       :         -152.67442152 Ha,       -4154.48238732 eV
    RPA+rSE (full) total energy       :         -152.67440857 Ha,       -4154.48203499 eV

    RPA+ total energy                 :         -152.27790927 Ha,       -4143.69274000 eV

 ----------------------------------------------------------------------------


------------------------------------------------------------------------------
  Final output of selected total energy values:

  The following output summarizes some interesting total energy values
  at the end of a run (AFTER all relaxation, molecular dynamics, etc.).

  | Total energy of the DFT / Hartree-Fock s.c.f. calculation      :          -4154.662265100 eV
  | Final zero-broadening corrected energy (caution - metals only) :          -4154.662265100 eV
  | Total energy after the post-s.c.f. correlation calculation     :          -4154.217284994 eV
  | For reference only, the value of 1 Hartree used in FHI-aims is :             27.211384500 eV

  Before relying on these values, please be sure to understand exactly which
  total energy value is referred to by a given number. Different objects may
  all carry the same name 'total energy'. Definitions:

  Total energy of the DFT / Hartree-Fock s.c.f. calculation:
  | Note that this energy does not include ANY quantities calculated after the
  | s.c.f. cycle, in particular not ANY RPA, MP2, etc. many-body perturbation terms.

  Final zero-broadening corrected energy:
  | For metallic systems only, a broadening of the occupation numbers at the Fermi
  | level can be extrapolated back to zero broadening by an electron-gas inspired
  | formula. For all systems that are not real metals, this value can be
  | meaningless and should be avoided.

  Total energy of the post-s.c.f. correlation calculation        :
  | The actual meaning of this energy depends on the setting for the 'total_energy_method'
  | keyword (MP2, RPA, rPT2, etc). If not sure, compare to the results listed above.

------------------------------------------------------------------------------

------------------------------------------------------------
          Leaving FHI-aims.
          Date     :  20120920, Time     :  210744.222

          Computational steps:
          | Number of self-consistency cycles          :           10

          Detailed time accounting                     :  max(cpu_time)    wall_clock(cpu1)
          | Total time                                 :       39.974 s          40.021 s
          | Preparation time                           :        0.188 s           0.195 s
          | Grid partitioning                          :        0.412 s           0.412 s
          | Preloading free-atom quantities on grid    :        0.100 s           0.098 s
          | Free-atom superposition energy             :        0.300 s           0.301 s
          | Total time for integrations                :        9.981 s           9.981 s
          | Product basis setup: Total time            :        8.445 s           8.453 s
          | Product basis: | 3-center integrations     :        7.784 s           7.785 s
          | Product basis: | 2-center integrations     :        0.592 s           0.593 s
          | Product basis: | 2-center linear algebra   :        0.044 s           0.042 s
          | Product basis: | 3-center x 2-center       :        0.008 s           0.007 s
          | Transforming ovlp_3fn to ovlp_3KS          :        0.004 s           0.005 s
          | Total time for evaluating polarisability   :        0.060 s           0.057 s
          | Total time for RPA corr. energy            :        0.032 s           0.032 s
          | Total time for solution of K.-S. equations :        0.012 s           0.014 s
          | Total time for density update              :        6.744 s           6.743 s
          | Total time for mixing                      :        0.380 s           0.368 s
          | Total time for Hartree multipole update    :        0.200 s           0.198 s
          | Total time for Hartree multipole sum       :       11.193 s          11.194 s
          | Total time for total energy evaluation     :        0.004 s           0.002 s

          Have a nice day.
------------------------------------------------------------
