  MPI-parallelism will be employed.
------------------------------------------------------------
          Invoking FHI-aims ...
          Version 081912
          Git rev. (modified): da8b1f0 Change by Igor:
          Compiled on 2012/08/22 at 21:40:32 on host theobook58.

          When using FHI-aims, please cite the following reference:

          Volker Blum, Ralf Gehrke, Felix Hanke, Paula Havu,
          Ville Havu, Xinguo Ren, Karsten Reuter, and Matthias Scheffler,
          'Ab Initio Molecular Simulations with Numeric Atom-Centered Orbitals: FHI-aims',
          Computer Physics Communications 180, 2175-2196 (2009)

------------------------------------------------------------

  Date     :  20120920, Time     :  211130.441
  Time zero on CPU 1             :   0.160000000000000E-01  s.
  Internal wall clock time zero  :           117407490.441  s.

  Using        2 parallel tasks.
  Task        0 on host theobook58 reporting.
  Task        1 on host theobook58 reporting.

  Performing system and environment tests:
  | Environment variable OMP_NUM_THREADS correctly set to 1.
  | Checking for scalapack...
  | No scalapack compiled in.

  Obtaining array dimensions for all initial allocations:
  
  -----------------------------------------------------------------------
  Parsing control.in (first pass over file, find array dimensions only).
  The contents of control.in will be repeated verbatim below
  unless switched off by setting 'verbatim_writeout .false.' .
  in the first line of control.in .
  -----------------------------------------------------------------------
  
  xc                      pbe
  total_energy_method     rpa
  relativistic            none
  occupation_type         integer 0.0001
  mixer                   pulay
  n_max_pulay             10
  charge_mix_param        0.6
  sc_accuracy_rho         1E-6
  sc_accuracy_eev         1E-4
  sc_accuracy_etot        1E-6
  sc_iter_limit           200
  rpa_frozen_core         1
  charge                  0
  ################################################################################
  #
  #  FHI-aims code project
  # Igor Ying Zhang and Xinguo Ren, Fritz Haber Institute Berlin, 2012
  #
  #  Suggested "cc-pVDZ" defaults for C atom (to be pasted into control.in file)
  #
  ################################################################################
    species        C
  #     global species definitions
      nucleus             6
      mass                12.0107
  #
      l_hartree           6
  #
      cut_pot             4.0  2.0  1.0
      basis_dep_cutoff    0e-0
  #
      radial_base         34 7.0
      radial_multiplier   6
      angular_grids       specified
        division   0.2187   50
        division   0.4416  110
        division   0.6335  194
        division   0.7727  302
        division   0.8772  434
  #      division   0.9334  590
  #      division   0.9924  770
  #      division   1.0230  974
  #      division   1.5020 1202
  #     outer_grid  974
        outer_grid  434
  ################################################################################
  #
  #  Definition of "minimal" basis
  #
  ################################################################################
  #     valence basis states
      valence      2  s   2.
      valence      2  p   2.
  #     ion occupancy
      ion_occ      2  s   1.
      ion_occ      2  p   1.
  ################################################################################
  #
  #   For exact comparison with all GTO-based codes, one or more of
  #   the following flags are needed:
  #
      include_min_basis   .false.
      pure_gauss          .true.
  #
  
  # C cc-pVDZ
   gaussian 0 8
      6665.0000000            0.0006920
      1000.0000000            0.0053290
       228.0000000            0.0270770
        64.7100000            0.1017180
        21.0600000            0.2747400
         7.4950000            0.4485640
         2.7970000            0.2850740
         0.5215000            0.0152040
   gaussian 0 8
      6665.0000000           -0.0001460
      1000.0000000           -0.0011540
       228.0000000           -0.0057250
        64.7100000           -0.0233120
        21.0600000           -0.0639550
         7.4950000           -0.1499810
         2.7970000           -0.1272620
         0.5215000            0.5445290
   gaussian 0 1 0.1596000
   gaussian 1 3
         9.4390000            0.0381090
         2.0020000            0.2094800
         0.5456000            0.5085570
   gaussian 1 1 0.1517000
   gaussian 2 1 0.5500000
  ################################################################################
  #
  #  FHI-aims code project
  # Igor Ying Zhang and Xinguo Ren, Fritz Haber Institute Berlin, 2012
  #
  #  Suggested "cc-pVDZ" defaults for N atom (to be pasted into control.in file)
  #
  ################################################################################
    species        N
  #     global species definitions
      nucleus             7
      mass                14.0067
  #
      l_hartree           6
  #
      cut_pot             4.0  2.0  1.0
      basis_dep_cutoff    0e-0
  #
      radial_base         35 7.0
      radial_multiplier   6
      angular_grids       specified
        division   0.1841   50
        division   0.3514  110
        division   0.5126  194
        division   0.6292  302
        division   0.6939  434
  #      division   0.7396  590
  #      division   0.7632  770
  #      division   0.8122  974
  #      division   1.1604 1202
  #      outer_grid  974
        outer_grid  434
  ################################################################################
  #
  #  Definition of "minimal" basis
  #
  ################################################################################
  #     valence basis states
      valence      2  s   2.
      valence      2  p   3.
  #     ion occupancy
      ion_occ      2  s   1.
      ion_occ      2  p   2.
  ################################################################################
  #
  #   For exact comparison with all GTO-based codes, one or more of
  #   the following flags are needed:
  #
      include_min_basis   .false.
      pure_gauss          .true.
  #
  
  # N cc-pVDZ
   gaussian 0 8
      9046.0000000            0.0007000
      1357.0000000            0.0053890
       309.3000000            0.0274060
        87.7300000            0.1032070
        28.5600000            0.2787230
        10.2100000            0.4485400
         3.8380000            0.2782380
         0.7466000            0.0154400
   gaussian 0 8
      9046.0000000           -0.0001530
      1357.0000000           -0.0012080
       309.3000000           -0.0059920
        87.7300000           -0.0245440
        28.5600000           -0.0674590
        10.2100000           -0.1580780
         3.8380000           -0.1218310
         0.7466000            0.5490030
   gaussian 0 1 0.2248000
   gaussian 1 3
        13.5500000            0.0399190
         2.9170000            0.2171690
         0.7973000            0.5103190
   gaussian 1 1 0.2185000
   gaussian 2 1 0.8170000
  ################################################################################
  #
  #  FHI-aims code project
  # Igor Ying Zhang and Xinguo Ren, Fritz Haber Institute Berlin, 2012
  #
  #  Suggested "cc-pVDZ" defaults for H atom (to be pasted into control.in file)
  #
  ################################################################################
    species        H
  #     global species definitions
      nucleus             1
      mass                1.00794
  #
      l_hartree           6
  #
      cut_pot             4.0  2.0  1.0
      basis_dep_cutoff    0e-0
  #
      radial_base         24 7.0
      radial_multiplier   6
      angular_grids       specified
        division   0.1930   50
        division   0.3175  110
        division   0.4293  194
        division   0.5066  302
        division   0.5626  434
  #      division   0.5922  590
  #      division   0.6227  974
  #      division   0.6868 1202
  #      outer_grid  770
        outer_grid  434
  ################################################################################
  #
  #  Definition of "minimal" basis
  #
  ################################################################################
  #     valence basis states
      valence      1  s   1.
  #     ion occupancy
      ion_occ      1  s   0.5
  ################################################################################
  #
  #   For exact comparison with all GTO-based codes, one or more of
  #   the following flags are needed:
  #
      include_min_basis   .false.
      pure_gauss          .true.
  #
  
  # H cc-pVDZ
   gaussian 0 3
        13.0100000            0.0196850
         1.9620000            0.1379770
         0.4446000            0.4781480
   gaussian 0 1 0.1220000
   gaussian 1 1 0.7270000
  ################################################################################
  #
  #  FHI-aims code project
  # Igor Ying Zhang and Xinguo Ren, Fritz Haber Institute Berlin, 2012
  #
  #  Suggested "cc-pVDZ" defaults for O atom (to be pasted into control.in file)
  #
  ################################################################################
    species        O
  #     global species definitions
      nucleus             8
      mass                15.9994
  #
      l_hartree           6
  #
      cut_pot             4.0  2.0  1.0
      basis_dep_cutoff    0e-0
  #
      radial_base         36 7.0
      radial_multiplier   6
      angular_grids       specified
        division   0.1817   50
        division   0.3417  110
        division   0.4949  194
        division   0.6251  302
        division   0.8014  434
  #      division   0.8507  590
  #      division   0.8762  770
  #      division   0.9023  974
  #      division   1.2339 1202
  #      outer_grid 974
        outer_grid  434
  ################################################################################
  #
  #  Definition of "minimal" basis
  #
  ################################################################################
  #     valence basis states
      valence      2  s   2.
      valence      2  p   4.
  #     ion occupancy
      ion_occ      2  s   1.
      ion_occ      2  p   3.
  ################################################################################
  #
  #   For exact comparison with all GTO-based codes, one or more of
  #   the following flags are needed:
  #
      include_min_basis   .false.
      pure_gauss          .true.
  #
  
  # O cc-pVDZ
   gaussian 0 8
     11720.0000000            0.0007100
      1759.0000000            0.0054700
       400.8000000            0.0278370
       113.7000000            0.1048000
        37.0300000            0.2830620
        13.2700000            0.4487190
         5.0250000            0.2709520
         1.0130000            0.0154580
   gaussian 0 8
     11720.0000000           -0.0001600
      1759.0000000           -0.0012630
       400.8000000           -0.0062670
       113.7000000           -0.0257160
        37.0300000           -0.0709240
        13.2700000           -0.1654110
         5.0250000           -0.1169550
         1.0130000            0.5573680
   gaussian 0 1 0.3023000
   gaussian 1 3
        17.7000000            0.0430180
         3.8540000            0.2289130
         1.0460000            0.5087280
   gaussian 1 1 0.2753000
   gaussian 2 1 1.1850000
  
  -----------------------------------------------------------------------
  Completed first pass over input file control.in .
  -----------------------------------------------------------------------
  
  
  -----------------------------------------------------------------------
  Parsing geometry.in (first pass over file, find array dimensions only).
  The contents of geometry.in will be repeated verbatim below
  unless switched off by setting 'verbatim_writeout .false.' .
  in the first line of geometry.in .
  -----------------------------------------------------------------------
  
  atom     -2.01864959      0.05288301      0.00000000    C
  atom      2.01864959     -0.05288301      0.00000000    C
  atom     -1.40777039     -1.14248434      0.00000000    N
  atom      1.40777039      1.14248434      0.00000000    N
  atom     -0.38724410     -1.20778240      0.00000000    H
  atom     -3.11706187     -0.01370100      0.00000000    H
  atom     -1.96459656     -1.97703662      0.00000000    H
  atom      1.96459656      1.97703662      0.00000000    H
  atom      0.38724410      1.20778240      0.00000000    H
  atom      3.11706187      0.01370100      0.00000000    H
  atom     -1.45220039      1.14363434      0.00000000    O
  atom      1.45220039     -1.14363434      0.00000000    O
  
  -----------------------------------------------------------------------
  Completed first pass over input file geometry.in .
  -----------------------------------------------------------------------
  

  Basic array size parameters: 
  | Number of species                 :        4
  | Number of atoms                   :       12
  | Max. basis fn. angular momentum   :        2
  | Max. atomic/ionic basis occupied n:        2
  | Max. number of basis fn. types    :        1
  | Max. radial fns per species/type  :        7
  | Max. logarithmic grid size        :     1301
  | Max. radial integration grid size :      221
  | Max. angular integration grid size:      434
  | Max. angular grid division number :        8
  | Radial grid for Hartree potential :     1301
  | Number of spin channels           :        1

------------------------------------------------------------
          Reading file control.in.
------------------------------------------------------------
  XC: Using PBE gradient-corrected functionals.
  RPA correlation energy calculation will be started after the DFT/HF calculation.
  Non-relativistic treatment of kinetic energy.
  Occupation type: Integer occupation.
  Using pulay charge density mixing.
  Pulay mixing - number of memorized iterations:   10
  Charge density mixing - mixing parameter:     0.6000
  Convergence accuracy of self-consistent charge density: 0.1000E-05
  Convergence accuracy of sum of eigenvalues: 0.1000E-03
  Convergence accuracy of total energy: 0.1000E-05
  Maximum number of s.-c. iterations  :   200
  Core electrons are frozen in the RPA calculation :     1
  Charge =   0.000000E+00: Neutral system requested explicitly.

  Reading configuration options for species C                   .
  | Found nuclear charge :   6.0000
  | Found atomic mass :    12.010700000000000      amu
  | Found l_max for Hartree potential  :   6
  | Found cutoff potl. onset [A], width [A], scale factor :    4.00000    2.00000    1.00000
  | Threshold for basis-dependent cutoff potential is   0.000000E+00
  | Found data for basic radial integration grid :    34 points, outermost radius =    7.000 A
  | Found multiplier for basic radial grid :   6
  | Found angular grid specification: user-specified.
  | Specified grid contains     6 separate shells.
  | Check grid settings after all constraints further below.
  | Found free-atom valence shell :  2 s   2.000
  | Found free-atom valence shell :  2 p   2.000
  | No ionic wave fns used. Skipping ion_occ.
  | No ionic wave fns used. Skipping ion_occ.
  | Found request to include minimal basis fns. :     F
  | Found request to include pure gaussian fns. :     T
  | Found contracted cartesian Gaussian basis function :  L = 0 ,   8 elementary Gaussians:
  |   alpha = 0.666500E+04 weight = 0.692000E-03
  |   alpha = 0.100000E+04 weight = 0.532900E-02
  |   alpha = 0.228000E+03 weight = 0.270770E-01
  |   alpha = 0.647100E+02 weight = 0.101718E+00
  |   alpha = 0.210600E+02 weight = 0.274740E+00
  |   alpha = 0.749500E+01 weight = 0.448564E+00
  |   alpha = 0.279700E+01 weight = 0.285074E+00
  |   alpha = 0.521500E+00 weight = 0.152040E-01
  |   In terms of angular momentum, this radial function adds: 
  |     1 s-type basis function
  | Found contracted cartesian Gaussian basis function :  L = 0 ,   8 elementary Gaussians:
  |   alpha = 0.666500E+04 weight = -.146000E-03
  |   alpha = 0.100000E+04 weight = -.115400E-02
  |   alpha = 0.228000E+03 weight = -.572500E-02
  |   alpha = 0.647100E+02 weight = -.233120E-01
  |   alpha = 0.210600E+02 weight = -.639550E-01
  |   alpha = 0.749500E+01 weight = -.149981E+00
  |   alpha = 0.279700E+01 weight = -.127262E+00
  |   alpha = 0.521500E+00 weight = 0.544529E+00
  |   In terms of angular momentum, this radial function adds: 
  |     1 s-type basis function
  | Found primitive cartesian Gaussian basis function :  0 0.159600E+00
  |   In terms of angular momentum, this radial function adds: 
  |     1 s-type basis function
  | Found contracted cartesian Gaussian basis function :  L = 1 ,   3 elementary Gaussians:
  |   alpha = 0.943900E+01 weight = 0.381090E-01
  |   alpha = 0.200200E+01 weight = 0.209480E+00
  |   alpha = 0.545600E+00 weight = 0.508557E+00
  |   In terms of angular momentum, this radial function adds: 
  |     3 p-type basis functions
  | Found primitive cartesian Gaussian basis function :  1 0.151700E+00
  |   In terms of angular momentum, this radial function adds: 
  |     3 p-type basis functions
  | Found primitive cartesian Gaussian basis function :  2 0.550000E+00
  |   In terms of angular momentum, this radial function adds: 
  |     5 d-type basis functions
  Species C                   : Missing cutoff potential type.
  Defaulting to exp(1/x)/(1-x)^2 type cutoff potential.
  Species C : No 'logarithmic' tag. Using default grid for free atom:
  | Default logarithmic grid data [bohr] : 0.1000E-03 0.1000E+03 0.1012E+01
  Species C : On-site basis accuracy parameter (for Gram-Schmidt orthonormalisation) not specified.
  Using default value basis_acc =  0.1000000E-03.
  Species C                   : Using default innermost maximum threshold i_radial=  2 for radial functions.
  Species C                   : Default cutoff onset for free atom density etc. is infinite
  since the product basis is used (hybrid functionals, Hartree-Fock, GW etc.).
  Species C                   : Basic radial grid will be enhanced according to radial_multiplier =   6, to contain   209 grid points.

  Reading configuration options for species N                   .
  | Found nuclear charge :   7.0000
  | Found atomic mass :    14.006700000000000      amu
  | Found l_max for Hartree potential  :   6
  | Found cutoff potl. onset [A], width [A], scale factor :    4.00000    2.00000    1.00000
  | Threshold for basis-dependent cutoff potential is   0.000000E+00
  | Found data for basic radial integration grid :    35 points, outermost radius =    7.000 A
  | Found multiplier for basic radial grid :   6
  | Found angular grid specification: user-specified.
  | Specified grid contains     6 separate shells.
  | Check grid settings after all constraints further below.
  | Found free-atom valence shell :  2 s   2.000
  | Found free-atom valence shell :  2 p   3.000
  | No ionic wave fns used. Skipping ion_occ.
  | No ionic wave fns used. Skipping ion_occ.
  | Found request to include minimal basis fns. :     F
  | Found request to include pure gaussian fns. :     T
  | Found contracted cartesian Gaussian basis function :  L = 0 ,   8 elementary Gaussians:
  |   alpha = 0.904600E+04 weight = 0.700000E-03
  |   alpha = 0.135700E+04 weight = 0.538900E-02
  |   alpha = 0.309300E+03 weight = 0.274060E-01
  |   alpha = 0.877300E+02 weight = 0.103207E+00
  |   alpha = 0.285600E+02 weight = 0.278723E+00
  |   alpha = 0.102100E+02 weight = 0.448540E+00
  |   alpha = 0.383800E+01 weight = 0.278238E+00
  |   alpha = 0.746600E+00 weight = 0.154400E-01
  |   In terms of angular momentum, this radial function adds: 
  |     1 s-type basis function
  | Found contracted cartesian Gaussian basis function :  L = 0 ,   8 elementary Gaussians:
  |   alpha = 0.904600E+04 weight = -.153000E-03
  |   alpha = 0.135700E+04 weight = -.120800E-02
  |   alpha = 0.309300E+03 weight = -.599200E-02
  |   alpha = 0.877300E+02 weight = -.245440E-01
  |   alpha = 0.285600E+02 weight = -.674590E-01
  |   alpha = 0.102100E+02 weight = -.158078E+00
  |   alpha = 0.383800E+01 weight = -.121831E+00
  |   alpha = 0.746600E+00 weight = 0.549003E+00
  |   In terms of angular momentum, this radial function adds: 
  |     1 s-type basis function
  | Found primitive cartesian Gaussian basis function :  0 0.224800E+00
  |   In terms of angular momentum, this radial function adds: 
  |     1 s-type basis function
  | Found contracted cartesian Gaussian basis function :  L = 1 ,   3 elementary Gaussians:
  |   alpha = 0.135500E+02 weight = 0.399190E-01
  |   alpha = 0.291700E+01 weight = 0.217169E+00
  |   alpha = 0.797300E+00 weight = 0.510319E+00
  |   In terms of angular momentum, this radial function adds: 
  |     3 p-type basis functions
  | Found primitive cartesian Gaussian basis function :  1 0.218500E+00
  |   In terms of angular momentum, this radial function adds: 
  |     3 p-type basis functions
  | Found primitive cartesian Gaussian basis function :  2 0.817000E+00
  |   In terms of angular momentum, this radial function adds: 
  |     5 d-type basis functions
  Species N                   : Missing cutoff potential type.
  Defaulting to exp(1/x)/(1-x)^2 type cutoff potential.
  Species N : No 'logarithmic' tag. Using default grid for free atom:
  | Default logarithmic grid data [bohr] : 0.1000E-03 0.1000E+03 0.1012E+01
  Species N : On-site basis accuracy parameter (for Gram-Schmidt orthonormalisation) not specified.
  Using default value basis_acc =  0.1000000E-03.
  Species N                   : Using default innermost maximum threshold i_radial=  2 for radial functions.
  Species N                   : Default cutoff onset for free atom density etc. is infinite
  since the product basis is used (hybrid functionals, Hartree-Fock, GW etc.).
  Species N                   : Basic radial grid will be enhanced according to radial_multiplier =   6, to contain   215 grid points.

  Reading configuration options for species H                   .
  | Found nuclear charge :   1.0000
  | Found atomic mass :    1.0079400000000001      amu
  | Found l_max for Hartree potential  :   6
  | Found cutoff potl. onset [A], width [A], scale factor :    4.00000    2.00000    1.00000
  | Threshold for basis-dependent cutoff potential is   0.000000E+00
  | Found data for basic radial integration grid :    24 points, outermost radius =    7.000 A
  | Found multiplier for basic radial grid :   6
  | Found angular grid specification: user-specified.
  | Specified grid contains     6 separate shells.
  | Check grid settings after all constraints further below.
  | Found free-atom valence shell :  1 s   1.000
  | No ionic wave fns used. Skipping ion_occ.
  | Found request to include minimal basis fns. :     F
  | Found request to include pure gaussian fns. :     T
  | Found contracted cartesian Gaussian basis function :  L = 0 ,   3 elementary Gaussians:
  |   alpha = 0.130100E+02 weight = 0.196850E-01
  |   alpha = 0.196200E+01 weight = 0.137977E+00
  |   alpha = 0.444600E+00 weight = 0.478148E+00
  |   In terms of angular momentum, this radial function adds: 
  |     1 s-type basis function
  | Found primitive cartesian Gaussian basis function :  0 0.122000E+00
  |   In terms of angular momentum, this radial function adds: 
  |     1 s-type basis function
  | Found primitive cartesian Gaussian basis function :  1 0.727000E+00
  |   In terms of angular momentum, this radial function adds: 
  |     3 p-type basis functions
  Species H                   : Missing cutoff potential type.
  Defaulting to exp(1/x)/(1-x)^2 type cutoff potential.
  Species H : No 'logarithmic' tag. Using default grid for free atom:
  | Default logarithmic grid data [bohr] : 0.1000E-03 0.1000E+03 0.1012E+01
  Species H : On-site basis accuracy parameter (for Gram-Schmidt orthonormalisation) not specified.
  Using default value basis_acc =  0.1000000E-03.
  Species H                   : Using default innermost maximum threshold i_radial=  2 for radial functions.
  Species H                   : Default cutoff onset for free atom density etc. is infinite
  since the product basis is used (hybrid functionals, Hartree-Fock, GW etc.).
  Species H                   : Basic radial grid will be enhanced according to radial_multiplier =   6, to contain   149 grid points.

  Reading configuration options for species O                   .
  | Found nuclear charge :   8.0000
  | Found atomic mass :    15.999400000000000      amu
  | Found l_max for Hartree potential  :   6
  | Found cutoff potl. onset [A], width [A], scale factor :    4.00000    2.00000    1.00000
  | Threshold for basis-dependent cutoff potential is   0.000000E+00
  | Found data for basic radial integration grid :    36 points, outermost radius =    7.000 A
  | Found multiplier for basic radial grid :   6
  | Found angular grid specification: user-specified.
  | Specified grid contains     6 separate shells.
  | Check grid settings after all constraints further below.
  | Found free-atom valence shell :  2 s   2.000
  | Found free-atom valence shell :  2 p   4.000
  | No ionic wave fns used. Skipping ion_occ.
  | No ionic wave fns used. Skipping ion_occ.
  | Found request to include minimal basis fns. :     F
  | Found request to include pure gaussian fns. :     T
  | Found contracted cartesian Gaussian basis function :  L = 0 ,   8 elementary Gaussians:
  |   alpha = 0.117200E+05 weight = 0.710000E-03
  |   alpha = 0.175900E+04 weight = 0.547000E-02
  |   alpha = 0.400800E+03 weight = 0.278370E-01
  |   alpha = 0.113700E+03 weight = 0.104800E+00
  |   alpha = 0.370300E+02 weight = 0.283062E+00
  |   alpha = 0.132700E+02 weight = 0.448719E+00
  |   alpha = 0.502500E+01 weight = 0.270952E+00
  |   alpha = 0.101300E+01 weight = 0.154580E-01
  |   In terms of angular momentum, this radial function adds: 
  |     1 s-type basis function
  | Found contracted cartesian Gaussian basis function :  L = 0 ,   8 elementary Gaussians:
  |   alpha = 0.117200E+05 weight = -.160000E-03
  |   alpha = 0.175900E+04 weight = -.126300E-02
  |   alpha = 0.400800E+03 weight = -.626700E-02
  |   alpha = 0.113700E+03 weight = -.257160E-01
  |   alpha = 0.370300E+02 weight = -.709240E-01
  |   alpha = 0.132700E+02 weight = -.165411E+00
  |   alpha = 0.502500E+01 weight = -.116955E+00
  |   alpha = 0.101300E+01 weight = 0.557368E+00
  |   In terms of angular momentum, this radial function adds: 
  |     1 s-type basis function
  | Found primitive cartesian Gaussian basis function :  0 0.302300E+00
  |   In terms of angular momentum, this radial function adds: 
  |     1 s-type basis function
  | Found contracted cartesian Gaussian basis function :  L = 1 ,   3 elementary Gaussians:
  |   alpha = 0.177000E+02 weight = 0.430180E-01
  |   alpha = 0.385400E+01 weight = 0.228913E+00
  |   alpha = 0.104600E+01 weight = 0.508728E+00
  |   In terms of angular momentum, this radial function adds: 
  |     3 p-type basis functions
  | Found primitive cartesian Gaussian basis function :  1 0.275300E+00
  |   In terms of angular momentum, this radial function adds: 
  |     3 p-type basis functions
  | Found primitive cartesian Gaussian basis function :  2 0.118500E+01
  |   In terms of angular momentum, this radial function adds: 
  |     5 d-type basis functions
  Species O                   : Missing cutoff potential type.
  Defaulting to exp(1/x)/(1-x)^2 type cutoff potential.
  Species O : No 'logarithmic' tag. Using default grid for free atom:
  | Default logarithmic grid data [bohr] : 0.1000E-03 0.1000E+03 0.1012E+01
  Species O : On-site basis accuracy parameter (for Gram-Schmidt orthonormalisation) not specified.
  Using default value basis_acc =  0.1000000E-03.
  Species O                   : Using default innermost maximum threshold i_radial=  2 for radial functions.
  Species O                   : Default cutoff onset for free atom density etc. is infinite
  since the product basis is used (hybrid functionals, Hartree-Fock, GW etc.).
  Species O                   : Basic radial grid will be enhanced according to radial_multiplier =   6, to contain   221 grid points.

  Finished reading input file 'control.in'. Consistency checks are next.

  Species C: Using default value for prodbas_acc =   1.000000E-02.
  Species C: Using default value max_l_prodbas =     5.
  Species N: Using default value for prodbas_acc =   1.000000E-02.
  Species N: Using default value max_l_prodbas =     5.
  Species H: Using default value for prodbas_acc =   1.000000E-02.
  Species H: Using default value max_l_prodbas =     5.
  Species O: Using default value for prodbas_acc =   1.000000E-02.
  Species O: Using default value max_l_prodbas =     5.
  Target number of points in a grid batch is not set. Defaulting to  100
  Method for grid partitioning is not set. Defaulting to parallel hash+maxmin partitioning.
  Batch size limit is not set. Defaulting to    200
  By default, will store active basis functions for each batch.
  If in need of memory, prune_basis_once .false. can be used to disable this option.
  communication_type for Hartree potential was not specified.
  Defaulting to calc_hartree .
  Pulay mixer: Number of initial linear mixing iterations not set.
  Defaulting to    0 iterations.
  Work space size for distributed Hartree potential not set.
  Defaulting to   0.200000E+03 MB.
  Algorithm-dependent basis array size parameters:
  | n_max_pulay                         :       10
  Calculation of forces was not defined in control.in. No forces will be calculated.
  Geometry relaxation not requested: no relaxation will be performed.
  No accuracy limit for integral partition fn. given. Defaulting to 0.1000E-14.
  No threshold value for u(r) in integrations given. Defaulting to 0.1000E-05.
  No accuracy for occupation numbers given. Defaulting to 0.1000E-07.
  No threshold value for occupation numbers given. Defaulting to 0.0000E+00.
  No accuracy for fermi level given. Defaulting to 0.1000E-19.
  Maximum # of iterations to find E_F not set. Defaulting to  200.
  Preferred method for the eigenvalue solver ('KS_method') not specified in 'control.in'.
  Calling blacs routine to test compilation state
  The best choice would be 'elpa', but your version of FHI-aims is compiled without scalapack support.
  Defaulting to 'lapack_fast' instead (serial solution, time will not improve with more CPUs).
  Will not use alltoall communication since running on < 1024 CPUs.
  Threshold for basis singularities not set.
  Default threshold for basis singularities: 0.1000E-04
  partition_type (choice of integration weights) for integrals was not specified.
  | Using a version of the partition function of Stratmann and coworkers ('stratmann_smoother').
  | At each grid point, the set of atoms used to build the partition table is smoothly restricted to
  | only those atoms whose free-atom density would be non-zero at that grid point.
  Partitioning for Hartree potential was not defined. Using partition_type for integrals.
  | Adjusted default value of keyword multip_moments_threshold to:       0.10000000E-11
  | This value may affect high angular momentum components of the Hartree potential in periodic systems.
  Spin handling was not defined in control.in. Defaulting to unpolarized case.
  Threshold for auxiliary basis singularities not set.
  Default threshold for auxiliary basis singularities: 0.1000E-04
  * Doing correlated calculations, so all empty single-particle states will be included.
  No q(lm)/r^(l+1) cutoff set for long-range Hartree potential.
  | Using default value of  0.100000E-09 .
  | Verify using the multipole_threshold keyword.
  Defaulting to new monopole extrapolation.
  Density update method: automatic selection selected.
  Default to 1D ("use_logsbt") integrations for auxiliary 2-center integrals.
  Default onset of logarithmic r-grid for SBT is-38.000000000000
  Default onset of logarithmic k-grid for SBT is-25.000000000000
  Default range of logarithmic r- and k-grid for SBT is 45.000000000000
  Default number of logarithmic r- and k-grid for SBT is 16384
------------------------------------------------------------


------------------------------------------------------------
          Reading geometry description geometry.in.
------------------------------------------------------------
  Input structure read successfully.
  The structure contains       12 atoms,  and a total of         48.000 electrons.

  Input geometry:
  | No unit cell requested.
  | Atomic structure:
  |       Atom                x [A]            y [A]            z [A]
  |    1: Species C         -2.018650         0.052883         0.000000
  |    2: Species C          2.018650        -0.052883         0.000000
  |    3: Species N         -1.407770        -1.142484         0.000000
  |    4: Species N          1.407770         1.142484         0.000000
  |    5: Species H         -0.387244        -1.207782         0.000000
  |    6: Species H         -3.117062        -0.013701         0.000000
  |    7: Species H         -1.964597        -1.977037         0.000000
  |    8: Species H          1.964597         1.977037         0.000000
  |    9: Species H          0.387244         1.207782         0.000000
  |   10: Species H          3.117062         0.013701         0.000000
  |   11: Species O         -1.452200         1.143634         0.000000
  |   12: Species O          1.452200        -1.143634         0.000000
  |
  | Closest distance between atoms is    1.003 AA.

  Structure-dependent array size parameters: 
  | Maximum number of distinct radial functions  :       21
  | Maximum number of basis functions            :      114
  | Number of Kohn-Sham states (occupied + empty):    12024
------------------------------------------------------------

------------------------------------------------------------
          Preparing all fixed parts of the calculation.
------------------------------------------------------------
  Determining machine precision:
    2.22507385850720138E-308
  Setting up grids for atomic and cluster calculations.

  Creating wave function, potential, and density for free atoms.

  Species: C

  List of occupied orbitals and eigenvalues:
    n    l              occ      energy [Ha]    energy [eV]
    1    0           2.0000       -10.042041      -273.2578
    2    0           2.0000        -0.504901       -13.7390
    2    1           2.0000        -0.194353        -5.2886


  Species: N

  List of occupied orbitals and eigenvalues:
    n    l              occ      energy [Ha]    energy [eV]
    1    0           2.0000       -14.129248      -384.4764
    2    0           2.0000        -0.681982       -18.5577
    2    1           3.0000        -0.260725        -7.0947


  Species: H

  List of occupied orbitals and eigenvalues:
    n    l              occ      energy [Ha]    energy [eV]
    1    0           1.0000        -0.238600        -6.4926


  Species: O

  List of occupied orbitals and eigenvalues:
    n    l              occ      energy [Ha]    energy [eV]
    1    0           2.0000       -18.898644      -514.2583
    2    0           2.0000        -0.878848       -23.9147
    2    1           4.0000        -0.332128        -9.0377

  Creating fixed part of basis set: Ionic, confined, hydrogenic.

  C                    Gaussian:

  List of cartesian Gaussian basis orbitals: 
    L    l
    0    0
    0    0
    0    0
    1    1
    1    1
    2    2


  N                    Gaussian:

  List of cartesian Gaussian basis orbitals: 
    L    l
    0    0
    0    0
    0    0
    1    1
    1    1
    2    2


  H                    Gaussian:

  List of cartesian Gaussian basis orbitals: 
    L    l
    0    0
    0    0
    1    1


  O                    Gaussian:

  List of cartesian Gaussian basis orbitals: 
    L    l
    0    0
    0    0
    0    0
    1    1
    1    1
    2    2


  Adding cutoff potential to free-atom effective potential.
  Creating atomic-like basis functions for current effective potential.
  Assembling full basis from fixed parts.
  | Species C : gaussian orbital   0 s accepted.
  | Species C : gaussian orbital   0 s accepted.
  | Species C : gaussian orbital   0 s accepted.
  | Species C : gaussian orbital   1 p accepted.
  | Species C : gaussian orbital   1 p accepted.
  | Species C : gaussian orbital   2 d accepted.
  | Species N : gaussian orbital   0 s accepted.
  | Species N : gaussian orbital   0 s accepted.
  | Species N : gaussian orbital   0 s accepted.
  | Species N : gaussian orbital   1 p accepted.
  | Species N : gaussian orbital   1 p accepted.
  | Species N : gaussian orbital   2 d accepted.
  | Species H : gaussian orbital   0 s accepted.
  | Species H : gaussian orbital   0 s accepted.
  | Species H : gaussian orbital   1 p accepted.
  | Species O : gaussian orbital   0 s accepted.
  | Species O : gaussian orbital   0 s accepted.
  | Species O : gaussian orbital   0 s accepted.
  | Species O : gaussian orbital   1 p accepted.
  | Species O : gaussian orbital   1 p accepted.
  | Species O : gaussian orbital   2 d accepted.

  * You requested    12024 Kohn-Sham states in the calculation,
  * but there are only      114 available basis states.
  * Reducing total number of  Kohn-Sham states to      114.


  Basis size parameters after reduction:
  | Total number of radial functions:       21
  | Total number of basis functions :      114

  Preparing densities etc. for the partition functions (integrals / Hartree potential).

  Preparations completed.
  max(cpu_time)          :      0.392 s.
  Wall clock time (cpu1) :      0.406 s.
------------------------------------------------------------

------------------------------------------------------------
          Begin self-consistency loop: Initialization.

          Date     :  20120920, Time     :  211130.857
------------------------------------------------------------

  Initializing index lists of integration centers etc. from given atomic structure:
  | Number of centers in hartree potential         :        12
  | Number of centers in hartree multipole         :        12
  | Number of centers in electron density summation:        12
  | Number of centers in basis integrals           :        12
  | Number of centers in integrals                 :        12
  Partitioning the integration grid into batches with parallel hashing+maxmin method.
  | Number of batches:     5484
  | Maximal batch size:     162
  | Minimal batch size:      68
  | Average batch size:     112.079
  | Standard deviation of batch sizes:      36.403

  Integration load balanced across     2 MPI tasks.
  Work distribution over tasks is as follows:
  Task     0 has     307279 integration points.
  Task     1 has     307361 integration points.
  Initializing partition tables, free-atom densities, potentials, etc.
  across the integration grid (initialize_grid_storage).
  | Net number of integration points:   614640
  | of which are non-zero points    :   503396
  Obtaining max. number of non-zero basis functions in each batch (get_n_compute_maxes).
  | Maximal number of non-zero basis functions:      111 in task     0
  | Maximal number of non-zero basis functions:      111 in task     1
  Selecting the method for density update.
  Loop over occupied states selected for charge density update.
  Integrating Hamiltonian matrix: batch-based integration.
  Time summed over all CPUs for integration: real work        6.324 s, elapsed        6.359 s
  Integrating overlap matrix.
  Time summed over all CPUs for integration: real work        2.869 s, elapsed        2.871 s

  Updating Kohn-Sham eigenvalues, eigenvectors, occupation numbers, and Fermi level.
  Solving generalized eigenproblem
  Updating Kohn-Sham eigenvalues and eigenfunctions.
  Transforming overlap matrix and checking for singularities.
  Overlap matrix is nonsingular:
  | Lowest eigenvalue:  0.721301E-02
  Solving real generalised eigenvalue problem by standard LAPACK (fast)
  Determining occupation numbers for Kohn-Sham eigenstates.
  | Chemical potential (Fermi level) in eV                 : -.73209091E+01
  | Error in electron count due to remaining E_F inaccuracy: 0.00000000E+00
  | Maximum occupation number of highest empty state:  0.00E+00

  Writing Kohn-Sham eigenvalues.

  State    Occupation    Eigenvalue [Ha]    Eigenvalue [eV]
      1       2.00000         -18.975429         -516.34769
      2       2.00000         -18.975429         -516.34769
      3       2.00000         -14.270383         -388.31688
      4       2.00000         -14.270372         -388.31657
      5       2.00000         -10.145613         -276.07617
      6       2.00000         -10.145612         -276.07614
      7       2.00000          -1.131147          -30.78008
      8       2.00000          -1.128009          -30.69467
      9       2.00000          -1.003209          -27.29869
     10       2.00000          -0.999869          -27.20782
     11       2.00000          -0.723574          -19.68944
     12       2.00000          -0.708840          -19.28852
     13       2.00000          -0.654900          -17.82074
     14       2.00000          -0.647294          -17.61378
     15       2.00000          -0.610629          -16.61605
     16       2.00000          -0.576334          -15.68286
     17       2.00000          -0.539722          -14.68658
     18       2.00000          -0.526772          -14.33420
     19       2.00000          -0.508715          -13.84285
     20       2.00000          -0.504354          -13.72418
     21       2.00000          -0.404692          -11.01223
     22       2.00000          -0.402549          -10.95393
     23       2.00000          -0.399255          -10.86427
     24       2.00000          -0.386115          -10.50671
     25       0.00000          -0.151962           -4.13511
     26       0.00000          -0.148458           -4.03974
     27       0.00000          -0.024902           -0.67762
     28       0.00000          -0.019170           -0.52163
     29       0.00000           0.008947            0.24346
     30       0.00000           0.021820            0.59375
     31       0.00000           0.051967            1.41409
     32       0.00000           0.071192            1.93724
     33       0.00000           0.127125            3.45925
     34       0.00000           0.150062            4.08338
     35       0.00000           0.176079            4.79135
     36       0.00000           0.204699            5.57015
     37       0.00000           0.311826            8.48522
     38       0.00000           0.334190            9.09376
     39       0.00000           0.340527            9.26620
     40       0.00000           0.344042            9.36185
     41       0.00000           0.351152            9.55534
     42       0.00000           0.361303            9.83155
     43       0.00000           0.388146           10.56199
     44       0.00000           0.390143           10.61634
     45       0.00000           0.420723           11.44845
     46       0.00000           0.490136           13.33727
     47       0.00000           0.530146           14.42600
     48       0.00000           0.567315           15.43743
     49       0.00000           0.580019           15.78311
     50       0.00000           0.581704           15.82897
     51       0.00000           0.600116           16.33000
     52       0.00000           0.638560           17.37611
     53       0.00000           0.690636           18.79317
     54       0.00000           0.700539           19.06263
     55       0.00000           0.771617           20.99676
     56       0.00000           0.788942           21.46822
     57       0.00000           0.807931           21.98491
     58       0.00000           0.828040           22.53211
     59       0.00000           0.858104           23.35019
     60       0.00000           0.868117           23.62266
     61       0.00000           0.921501           25.07533
     62       0.00000           0.968322           26.34939
     63       0.00000           0.969499           26.38140
     64       0.00000           0.997505           27.14350
     65       0.00000           1.008217           27.43499
     66       0.00000           1.055215           28.71387
     67       0.00000           1.073688           29.21652
     68       0.00000           1.092419           29.72624
     69       0.00000           1.184061           32.21993
     70       0.00000           1.192082           32.43820
     71       0.00000           1.275924           34.71965
     72       0.00000           1.313120           35.73180
     73       0.00000           1.322079           35.97561
     74       0.00000           1.329294           36.17192
     75       0.00000           1.427647           38.84826
     76       0.00000           1.445293           39.32843
     77       0.00000           1.476934           40.18941
     78       0.00000           1.501401           40.85521
     79       0.00000           1.507581           41.02336
     80       0.00000           1.518542           41.32162
     81       0.00000           1.548165           42.12772
     82       0.00000           1.549880           42.17439
     83       0.00000           1.593322           43.35651
     84       0.00000           1.606753           43.72198
     85       0.00000           1.748796           47.58715
     86       0.00000           1.756254           47.79010
     87       0.00000           1.898346           51.65663
     88       0.00000           1.924603           52.37110
     89       0.00000           1.959172           53.31179
     90       0.00000           1.960588           53.35030
     91       0.00000           1.979356           53.86102
     92       0.00000           2.004862           54.55508
     93       0.00000           2.066649           56.23639
     94       0.00000           2.076913           56.51567
     95       0.00000           2.133951           58.06776
     96       0.00000           2.171803           59.09776
     97       0.00000           2.233654           60.78081
     98       0.00000           2.265635           61.65106
     99       0.00000           2.321103           63.16043
    100       0.00000           2.375718           64.64657
    101       0.00000           2.448303           66.62170
    102       0.00000           2.450288           66.67573
    103       0.00000           2.463899           67.04610
    104       0.00000           2.557816           69.60172
    105       0.00000           2.618816           71.26162
    106       0.00000           2.760620           75.12030
    107       0.00000           2.800238           76.19835
    108       0.00000           2.813154           76.54981
    109       0.00000           2.858131           77.77371
    110       0.00000           2.947848           80.21503
    111       0.00000           3.168287           86.21348
    112       0.00000           3.198075           87.02406
    113       0.00000           3.230563           87.90808
    114       0.00000           3.262732           88.78346

  Highest occupied state (VBM) at    -10.50671209 eV
  | Occupation number:      2.00000000

  Lowest unoccupied state (CBM) at    -4.13510617 eV
  | Occupation number:      0.00000000

  Overall HOMO-LUMO gap:      6.37160592 eV.
  Calculating total energy contributions from superposition of free atom densities.

  Total energy components:
  | Sum of eigenvalues            :        -197.27763124 Ha       -5368.19747701 eV
  | XC energy correction          :         -42.88294683 Ha       -1166.90435474 eV
  | XC potential correction       :          55.12108679 Ha        1499.92108668 eV
  | Free-atom electrostatic energy:        -154.66280101 Ha       -4208.58894612 eV
  | Hartree energy correction     :          -0.00000000 Ha          -0.00000000 eV
  | Entropy correction            :          -0.00000000 Ha          -0.00000000 eV
  | ---------------------------
  | Total energy                  :        -339.70229230 Ha       -9243.76969118 eV
  | Total energy, T -> 0          :        -339.70229230 Ha       -9243.76969118 eV  <-- only rely on this value for actual (periodic) metals
  | Electronic free energy        :        -339.70229230 Ha       -9243.76969118 eV

  Derived energy quantities:
  | Kinetic energy                :         336.70824488 Ha        9162.29751562 eV
  | Electrostatic energy          :        -633.52759034 Ha      -17239.16285206 eV
  | Energy correction for multipole
  | error in Hartree potential    :           0.00000000 Ha           0.00000000 eV
  | Sum of eigenvalues per atom                           :        -447.34978975 eV
  | Total energy (T->0) per atom                          :        -770.31414093 eV  <-- only rely on this value for actual (periodic) metals
  | Electronic free energy per atom                       :        -770.31414093 eV
  Initialize hartree_potential_storage
  Max. number of atoms included in rho_multipole:           12

  End scf initialization - timings             :  max(cpu_time)    wall_clock(cpu1)
  | Time for scf. initialization               :        8.761 s           8.770 s
  | Boundary condition initialization          :        0.000 s           0.000 s
  | Integration                                :        4.608 s           4.615 s
  | Solution of K.-S. eqns.                    :        0.020 s           0.018 s
  | Grid partitioning                          :        0.860 s           0.861 s
  | Preloading free-atom quantities on grid    :        0.200 s           0.200 s
  | Free-atom superposition energy             :        0.844 s           0.846 s
  | Total energy evaluation                    :        0.000 s           0.000 s
------------------------------------------------------------

------------------------------------------------------------
          Begin self-consistency iteration #    1

  Date     :  20120920, Time     :  211139.627
------------------------------------------------------------
  Evaluating new KS density.
  Integration grid: deviation in total charge (<rho> - N_e) =   7.105427E-14
  Pulay mixing of updated and previous charge densities.

  Evaluating partitioned Hartree potential by multipole expansion.
  | Analytical far-field extrapolation by fixed multipoles:
  | Hartree multipole sum: apparent total charge =   0.657696E-05
  Summing up the Hartree potential.
  Time summed over all CPUs for potential: real work        9.046 s, elapsed        9.277 s
  | RMS charge density error from multipole expansion :   0.767864E-02

  Integrating Hamiltonian matrix: batch-based integration.
  Time summed over all CPUs for integration: real work        6.124 s, elapsed        6.139 s

  Updating Kohn-Sham eigenvalues, eigenvectors, occupation numbers, and Fermi level.
  Solving generalized eigenproblem
  Updating Kohn-Sham eigenvalues and eigenfunctions.
  Solving real generalised eigenvalue problem by standard LAPACK (fast)
  Determining occupation numbers for Kohn-Sham eigenstates.
  | Chemical potential (Fermi level) in eV                 : -.24130247E+01
  | Error in electron count due to remaining E_F inaccuracy: 0.00000000E+00
  | Maximum occupation number of highest empty state:  0.00E+00

  Writing Kohn-Sham eigenvalues.

  State    Occupation    Eigenvalue [Ha]    Eigenvalue [eV]
      1       2.00000         -18.577952         -505.53181
      2       2.00000         -18.577952         -505.53180
      3       2.00000         -13.882692         -377.76727
      4       2.00000         -13.882680         -377.76694
      5       2.00000         -10.012638         -272.45775
      6       2.00000         -10.012637         -272.45771
      7       2.00000          -0.922625          -25.10591
      8       2.00000          -0.917826          -24.97532
      9       2.00000          -0.806034          -21.93331
     10       2.00000          -0.800318          -21.77777
     11       2.00000          -0.573707          -15.61137
     12       2.00000          -0.556257          -15.13652
     13       2.00000          -0.490732          -13.35351
     14       2.00000          -0.485196          -13.20285
     15       2.00000          -0.440817          -11.99523
     16       2.00000          -0.407914          -11.09992
     17       2.00000          -0.346910           -9.43989
     18       2.00000          -0.345057           -9.38949
     19       2.00000          -0.341804           -9.30095
     20       2.00000          -0.326041           -8.87203
     21       2.00000          -0.199100           -5.41779
     22       2.00000          -0.191216           -5.20326
     23       2.00000          -0.190575           -5.18581
     24       2.00000          -0.175279           -4.76957
     25       0.00000          -0.002075           -0.05648
     26       0.00000           0.005140            0.13986
     27       0.00000           0.036228            0.98581
     28       0.00000           0.036780            1.00084
     29       0.00000           0.073274            1.99388
     30       0.00000           0.085479            2.32599
     31       0.00000           0.161836            4.40377
     32       0.00000           0.181540            4.93995
     33       0.00000           0.247088            6.72361
     34       0.00000           0.264263            7.19097
     35       0.00000           0.313763            8.53793
     36       0.00000           0.321219            8.74082
     37       0.00000           0.414205           11.27110
     38       0.00000           0.419030           11.40240
     39       0.00000           0.422973           11.50968
     40       0.00000           0.432738           11.77541
     41       0.00000           0.435551           11.85194
     42       0.00000           0.446528           12.15064
     43       0.00000           0.479987           13.06111
     44       0.00000           0.510021           13.87837
     45       0.00000           0.562748           15.31315
     46       0.00000           0.612863           16.67685
     47       0.00000           0.632294           17.20560
     48       0.00000           0.681821           18.55330
     49       0.00000           0.706791           19.23275
     50       0.00000           0.719528           19.57935
     51       0.00000           0.730436           19.87617
     52       0.00000           0.731575           19.90716
     53       0.00000           0.819938           22.31164
     54       0.00000           0.828363           22.54091
     55       0.00000           0.904000           24.59909
     56       0.00000           0.911119           24.79280
     57       0.00000           0.939762           25.57222
     58       0.00000           0.951983           25.90477
     59       0.00000           0.986660           26.84840
     60       0.00000           0.990872           26.96300
     61       0.00000           1.070916           29.14111
     62       0.00000           1.078494           29.34732
     63       0.00000           1.094767           29.79014
     64       0.00000           1.125209           30.61849
     65       0.00000           1.138822           30.98893
     66       0.00000           1.164065           31.67581
     67       0.00000           1.216528           33.10342
     68       0.00000           1.221099           33.22779
     69       0.00000           1.307592           35.58139
     70       0.00000           1.330973           36.21761
     71       0.00000           1.381186           37.58399
     72       0.00000           1.413921           38.47475
     73       0.00000           1.430109           38.91525
     74       0.00000           1.439983           39.18393
     75       0.00000           1.546563           42.08411
     76       0.00000           1.577492           42.92575
     77       0.00000           1.579970           42.99317
     78       0.00000           1.593055           43.34923
     79       0.00000           1.601353           43.57503
     80       0.00000           1.623064           44.16583
     81       0.00000           1.624241           44.19783
     82       0.00000           1.667039           45.36243
     83       0.00000           1.723858           46.90856
     84       0.00000           1.732854           47.15335
     85       0.00000           1.848212           50.29240
     86       0.00000           1.866054           50.77792
     87       0.00000           2.051610           55.82714
     88       0.00000           2.052512           55.85170
     89       0.00000           2.078747           56.56558
     90       0.00000           2.094026           56.98136
     91       0.00000           2.152579           58.57466
     92       0.00000           2.173178           59.13518
     93       0.00000           2.226807           60.59451
     94       0.00000           2.231664           60.72668
     95       0.00000           2.260725           61.51745
     96       0.00000           2.322382           63.19522
     97       0.00000           2.386053           64.92782
     98       0.00000           2.401156           65.33879
     99       0.00000           2.494045           67.86643
    100       0.00000           2.542775           69.19243
    101       0.00000           2.656494           72.28687
    102       0.00000           2.660090           72.38474
    103       0.00000           2.662626           72.45375
    104       0.00000           2.743274           74.64829
    105       0.00000           2.777772           75.58701
    106       0.00000           2.930554           79.74443
    107       0.00000           3.006581           81.81323
    108       0.00000           3.018040           82.12505
    109       0.00000           3.027714           82.38829
    110       0.00000           3.130383           85.18207
    111       0.00000           3.374282           91.81888
    112       0.00000           3.406819           92.70426
    113       0.00000           3.435556           93.48625
    114       0.00000           3.460765           94.17220

  Highest occupied state (VBM) at     -4.76957300 eV
  | Occupation number:      2.00000000

  Lowest unoccupied state (CBM) at    -0.05647632 eV
  | Occupation number:      0.00000000

  Overall HOMO-LUMO gap:      4.71309668 eV.

  Total energy components:
  | Sum of eigenvalues            :        -186.92792255 Ha       -5086.56757426 eV
  | XC energy correction          :         -43.92546701 Ha       -1195.27277205 eV
  | XC potential correction       :          56.48014067 Ha        1536.90282447 eV
  | Free-atom electrostatic energy:        -154.66280101 Ha       -4208.58894612 eV
  | Hartree energy correction     :         -10.47794774 Ha        -285.11946475 eV
  | Entropy correction            :          -0.00000000 Ha          -0.00000000 eV
  | ---------------------------
  | Total energy                  :        -339.51399763 Ha       -9238.64593270 eV
  | Total energy, T -> 0          :        -339.51399763 Ha       -9238.64593270 eV  <-- only rely on this value for actual (periodic) metals
  | Electronic free energy        :        -339.51399763 Ha       -9238.64593270 eV

  Derived energy quantities:
  | Kinetic energy                :         340.92737757 Ha        9277.10595770 eV
  | Electrostatic energy          :        -636.51590820 Ha      -17320.47911836 eV
  | Energy correction for multipole
  | error in Hartree potential    :          -0.02046753 Ha          -0.55694974 eV
  | Sum of eigenvalues per atom                           :        -423.88063119 eV
  | Total energy (T->0) per atom                          :        -769.88716106 eV  <-- only rely on this value for actual (periodic) metals
  | Electronic free energy per atom                       :        -769.88716106 eV

  Self-consistency convergence accuracy:
  | Change of charge density      : 0.5684E+00
  | Change of sum of eigenvalues  : 0.2816E+03 eV
  | Change of total energy        : 0.5124E+01 eV

  End self-consistency iteration #     1       :  max(cpu_time)    wall_clock(cpu1)
  | Time for this iteration                    :       10.657 s          10.668 s
  | Charge density update                      :        2.884 s           2.886 s
  | Density mixing                             :        0.028 s           0.025 s
  | Hartree multipole update                   :        0.040 s           0.039 s
  | Hartree multipole summation                :        4.636 s           4.642 s
  | Integration                                :        3.068 s           3.070 s
  | Solution of K.-S. eqns.                    :        0.004 s           0.004 s
  | Total energy evaluation                    :        0.000 s           0.000 s
------------------------------------------------------------

------------------------------------------------------------
          Begin self-consistency iteration #    2

  Date     :  20120920, Time     :  211150.295
------------------------------------------------------------
  Evaluating new KS density.
  Integration grid: deviation in total charge (<rho> - N_e) =  -8.526513E-14
  Pulay mixing of updated and previous charge densities.

  Evaluating partitioned Hartree potential by multipole expansion.
  | Analytical far-field extrapolation by fixed multipoles:
  | Hartree multipole sum: apparent total charge =   0.837164E-05
  Summing up the Hartree potential.
  Time summed over all CPUs for potential: real work        9.046 s, elapsed        9.276 s
  | RMS charge density error from multipole expansion :   0.862746E-02

  Integrating Hamiltonian matrix: batch-based integration.
  Time summed over all CPUs for integration: real work        6.191 s, elapsed        6.247 s

  Updating Kohn-Sham eigenvalues, eigenvectors, occupation numbers, and Fermi level.
  Solving generalized eigenproblem
  Updating Kohn-Sham eigenvalues and eigenfunctions.
  Solving real generalised eigenvalue problem by standard LAPACK (fast)
  Determining occupation numbers for Kohn-Sham eigenstates.
  | Chemical potential (Fermi level) in eV                 : -.33413219E+01
  | Error in electron count due to remaining E_F inaccuracy: 0.00000000E+00
  | Maximum occupation number of highest empty state:  0.00E+00

  Highest occupied state (VBM) at     -6.20427350 eV
  | Occupation number:      2.00000000

  Lowest unoccupied state (CBM) at    -0.47837021 eV
  | Occupation number:      0.00000000

  Overall HOMO-LUMO gap:      5.72590328 eV.

  Total energy components:
  | Sum of eigenvalues            :        -188.97205167 Ha       -5142.19115775 eV
  | XC energy correction          :         -43.69177435 Ha       -1188.91367138 eV
  | XC potential correction       :          56.17359150 Ha        1528.56119709 eV
  | Free-atom electrostatic energy:        -154.66280101 Ha       -4208.58894612 eV
  | Hartree energy correction     :          -8.30548117 Ha        -226.00364157 eV
  | Entropy correction            :          -0.00000000 Ha          -0.00000000 eV
  | ---------------------------
  | Total energy                  :        -339.45851670 Ha       -9237.13621972 eV
  | Total energy, T -> 0          :        -339.45851670 Ha       -9237.13621972 eV  <-- only rely on this value for actual (periodic) metals
  | Electronic free energy        :        -339.45851670 Ha       -9237.13621972 eV

  Derived energy quantities:
  | Kinetic energy                :         338.62731869 Ha        9214.51817110 eV
  | Electrostatic energy          :        -634.39406104 Ha      -17262.74071945 eV
  | Energy correction for multipole
  | error in Hartree potential    :          -0.02186989 Ha          -0.59511000 eV
  | Sum of eigenvalues per atom                           :        -428.51592981 eV
  | Total energy (T->0) per atom                          :        -769.76135164 eV  <-- only rely on this value for actual (periodic) metals
  | Electronic free energy per atom                       :        -769.76135164 eV

  Self-consistency convergence accuracy:
  | Change of charge density      : 0.3883E+00
  | Change of sum of eigenvalues  : -.5562E+02 eV
  | Change of total energy        : 0.1510E+01 eV

  End self-consistency iteration #     2       :  max(cpu_time)    wall_clock(cpu1)
  | Time for this iteration                    :       10.665 s          10.676 s
  | Charge density update                      :        2.832 s           2.832 s
  | Density mixing                             :        0.036 s           0.037 s
  | Hartree multipole update                   :        0.036 s           0.038 s
  | Hartree multipole summation                :        4.636 s           4.640 s
  | Integration                                :        3.120 s           3.124 s
  | Solution of K.-S. eqns.                    :        0.004 s           0.004 s
  | Total energy evaluation                    :        0.000 s           0.000 s
------------------------------------------------------------

------------------------------------------------------------
          Begin self-consistency iteration #    3

  Date     :  20120920, Time     :  211200.971
------------------------------------------------------------
  Evaluating new KS density.
  Integration grid: deviation in total charge (<rho> - N_e) =  -1.136868E-13
  Pulay mixing of updated and previous charge densities.

  Evaluating partitioned Hartree potential by multipole expansion.
  | Analytical far-field extrapolation by fixed multipoles:
  | Hartree multipole sum: apparent total charge =   0.103186E-04
  Summing up the Hartree potential.
  Time summed over all CPUs for potential: real work        9.034 s, elapsed        9.262 s
  | RMS charge density error from multipole expansion :   0.102986E-01

  Integrating Hamiltonian matrix: batch-based integration.
  Time summed over all CPUs for integration: real work        6.162 s, elapsed        6.224 s

  Updating Kohn-Sham eigenvalues, eigenvectors, occupation numbers, and Fermi level.
  Solving generalized eigenproblem
  Updating Kohn-Sham eigenvalues and eigenfunctions.
  Solving real generalised eigenvalue problem by standard LAPACK (fast)
  Determining occupation numbers for Kohn-Sham eigenstates.
  | Chemical potential (Fermi level) in eV                 : -.28347931E+01
  | Error in electron count due to remaining E_F inaccuracy: 0.00000000E+00
  | Maximum occupation number of highest empty state:  0.00E+00

  Highest occupied state (VBM) at     -5.32971073 eV
  | Occupation number:      2.00000000

  Lowest unoccupied state (CBM) at    -0.33987547 eV
  | Occupation number:      0.00000000

  Overall HOMO-LUMO gap:      4.98983525 eV.

  Total energy components:
  | Sum of eigenvalues            :        -188.62479545 Ha       -5132.74183524 eV
  | XC energy correction          :         -43.74442217 Ha       -1190.34629134 eV
  | XC potential correction       :          56.24154996 Ha        1530.41044079 eV
  | Free-atom electrostatic energy:        -154.66280101 Ha       -4208.58894612 eV
  | Hartree energy correction     :          -8.66745422 Ha        -235.85342936 eV
  | Entropy correction            :          -0.00000000 Ha          -0.00000000 eV
  | ---------------------------
  | Total energy                  :        -339.45792289 Ha       -9237.12006127 eV
  | Total energy, T -> 0          :        -339.45792289 Ha       -9237.12006127 eV  <-- only rely on this value for actual (periodic) metals
  | Electronic free energy        :        -339.45792289 Ha       -9237.12006127 eV

  Derived energy quantities:
  | Kinetic energy                :         338.03603398 Ha        9198.42849538 eV
  | Electrostatic energy          :        -633.74953470 Ha      -17245.20226531 eV
  | Energy correction for multipole
  | error in Hartree potential    :          -0.02459405 Ha          -0.66923808 eV
  | Sum of eigenvalues per atom                           :        -427.72848627 eV
  | Total energy (T->0) per atom                          :        -769.76000511 eV  <-- only rely on this value for actual (periodic) metals
  | Electronic free energy per atom                       :        -769.76000511 eV

  Self-consistency convergence accuracy:
  | Change of charge density      : 0.1229E+00
  | Change of sum of eigenvalues  : 0.9449E+01 eV
  | Change of total energy        : 0.1616E-01 eV

  End self-consistency iteration #     3       :  max(cpu_time)    wall_clock(cpu1)
  | Time for this iteration                    :       10.613 s          10.622 s
  | Charge density update                      :        2.780 s           2.781 s
  | Density mixing                             :        0.048 s           0.050 s
  | Hartree multipole update                   :        0.040 s           0.040 s
  | Hartree multipole summation                :        4.628 s           4.633 s
  | Integration                                :        3.112 s           3.112 s
  | Solution of K.-S. eqns.                    :        0.004 s           0.004 s
  | Total energy evaluation                    :        0.000 s           0.000 s
------------------------------------------------------------

------------------------------------------------------------
          Begin self-consistency iteration #    4

  Date     :  20120920, Time     :  211211.593
------------------------------------------------------------
  Evaluating new KS density.
  Integration grid: deviation in total charge (<rho> - N_e) =  -8.526513E-14
  Pulay mixing of updated and previous charge densities.

  Evaluating partitioned Hartree potential by multipole expansion.
  | Analytical far-field extrapolation by fixed multipoles:
  | Hartree multipole sum: apparent total charge =   0.111140E-04
  Summing up the Hartree potential.
  Time summed over all CPUs for potential: real work        9.028 s, elapsed        9.269 s
  | RMS charge density error from multipole expansion :   0.109899E-01

  Integrating Hamiltonian matrix: batch-based integration.
  Time summed over all CPUs for integration: real work        6.117 s, elapsed        6.137 s

  Updating Kohn-Sham eigenvalues, eigenvectors, occupation numbers, and Fermi level.
  Solving generalized eigenproblem
  Updating Kohn-Sham eigenvalues and eigenfunctions.
  Solving real generalised eigenvalue problem by standard LAPACK (fast)
  Determining occupation numbers for Kohn-Sham eigenstates.
  | Chemical potential (Fermi level) in eV                 : -.29259883E+01
  | Error in electron count due to remaining E_F inaccuracy: 0.00000000E+00
  | Maximum occupation number of highest empty state:  0.00E+00

  Highest occupied state (VBM) at     -5.56740534 eV
  | Occupation number:      2.00000000

  Lowest unoccupied state (CBM) at    -0.28457128 eV
  | Occupation number:      0.00000000

  Overall HOMO-LUMO gap:      5.28283406 eV.

  Total energy components:
  | Sum of eigenvalues            :        -188.49733475 Ha       -5129.27345313 eV
  | XC energy correction          :         -43.75239258 Ha       -1190.56317716 eV
  | XC potential correction       :          56.25185503 Ha        1530.69085593 eV
  | Free-atom electrostatic energy:        -154.66280101 Ha       -4208.58894612 eV
  | Hartree energy correction     :          -8.79104799 Ha        -239.21658695 eV
  | Entropy correction            :          -0.00000000 Ha          -0.00000000 eV
  | ---------------------------
  | Total energy                  :        -339.45172130 Ha       -9236.95130743 eV
  | Total energy, T -> 0          :        -339.45172130 Ha       -9236.95130743 eV  <-- only rely on this value for actual (periodic) metals
  | Electronic free energy        :        -339.45172130 Ha       -9236.95130743 eV

  Derived energy quantities:
  | Kinetic energy                :         337.71729135 Ha        9189.75506735 eV
  | Electrostatic energy          :        -633.41662008 Ha      -17236.14319761 eV
  | Energy correction for multipole
  | error in Hartree potential    :          -0.02615852 Ha          -0.71180945 eV
  | Sum of eigenvalues per atom                           :        -427.43945443 eV
  | Total energy (T->0) per atom                          :        -769.74594229 eV  <-- only rely on this value for actual (periodic) metals
  | Electronic free energy per atom                       :        -769.74594229 eV

  Self-consistency convergence accuracy:
  | Change of charge density      : 0.1174E+00
  | Change of sum of eigenvalues  : 0.3468E+01 eV
  | Change of total energy        : 0.1688E+00 eV

  End self-consistency iteration #     4       :  max(cpu_time)    wall_clock(cpu1)
  | Time for this iteration                    :       10.649 s          10.661 s
  | Charge density update                      :        2.848 s           2.850 s
  | Density mixing                             :        0.064 s           0.060 s
  | Hartree multipole update                   :        0.040 s           0.040 s
  | Hartree multipole summation                :        4.632 s           4.636 s
  | Integration                                :        3.068 s           3.069 s
  | Solution of K.-S. eqns.                    :        0.004 s           0.004 s
  | Total energy evaluation                    :        0.000 s           0.000 s
------------------------------------------------------------

------------------------------------------------------------
          Begin self-consistency iteration #    5

  Date     :  20120920, Time     :  211222.255
------------------------------------------------------------
  Evaluating new KS density.
  Integration grid: deviation in total charge (<rho> - N_e) =   2.842171E-14
  Pulay mixing of updated and previous charge densities.

  Evaluating partitioned Hartree potential by multipole expansion.
  | Analytical far-field extrapolation by fixed multipoles:
  | Hartree multipole sum: apparent total charge =   0.112464E-04
  Summing up the Hartree potential.
  Time summed over all CPUs for potential: real work        9.045 s, elapsed        9.276 s
  | RMS charge density error from multipole expansion :   0.110626E-01

  Integrating Hamiltonian matrix: batch-based integration.
  Time summed over all CPUs for integration: real work        6.135 s, elapsed        6.178 s

  Updating Kohn-Sham eigenvalues, eigenvectors, occupation numbers, and Fermi level.
  Solving generalized eigenproblem
  Updating Kohn-Sham eigenvalues and eigenfunctions.
  Solving real generalised eigenvalue problem by standard LAPACK (fast)
  Determining occupation numbers for Kohn-Sham eigenstates.
  | Chemical potential (Fermi level) in eV                 : -.28731275E+01
  | Error in electron count due to remaining E_F inaccuracy: 0.00000000E+00
  | Maximum occupation number of highest empty state:  0.00E+00

  Highest occupied state (VBM) at     -5.51795223 eV
  | Occupation number:      2.00000000

  Lowest unoccupied state (CBM) at    -0.22830278 eV
  | Occupation number:      0.00000000

  Overall HOMO-LUMO gap:      5.28964945 eV.

  Total energy components:
  | Sum of eigenvalues            :        -188.46398057 Ha       -5128.36583979 eV
  | XC energy correction          :         -43.75179373 Ha       -1190.54688187 eV
  | XC potential correction       :          56.25114895 Ha        1530.67164272 eV
  | Free-atom electrostatic energy:        -154.66280101 Ha       -4208.58894612 eV
  | Hartree energy correction     :          -8.82397701 Ha        -240.11263125 eV
  | Entropy correction            :          -0.00000000 Ha          -0.00000000 eV
  | ---------------------------
  | Total energy                  :        -339.45140338 Ha       -9236.94265631 eV
  | Total energy, T -> 0          :        -339.45140338 Ha       -9236.94265631 eV  <-- only rely on this value for actual (periodic) metals
  | Electronic free energy        :        -339.45140338 Ha       -9236.94265631 eV

  Derived energy quantities:
  | Kinetic energy                :         337.67754373 Ha        9188.67347934 eV
  | Electrostatic energy          :        -633.37715337 Ha      -17235.06925378 eV
  | Energy correction for multipole
  | error in Hartree potential    :          -0.02626998 Ha          -0.71484257 eV
  | Sum of eigenvalues per atom                           :        -427.36381998 eV
  | Total energy (T->0) per atom                          :        -769.74522136 eV  <-- only rely on this value for actual (periodic) metals
  | Electronic free energy per atom                       :        -769.74522136 eV

  Self-consistency convergence accuracy:
  | Change of charge density      : 0.2092E-01
  | Change of sum of eigenvalues  : 0.9076E+00 eV
  | Change of total energy        : 0.8651E-02 eV

  End self-consistency iteration #     5       :  max(cpu_time)    wall_clock(cpu1)
  | Time for this iteration                    :       10.721 s          10.730 s
  | Charge density update                      :        2.884 s           2.885 s
  | Density mixing                             :        0.072 s           0.072 s
  | Hartree multipole update                   :        0.040 s           0.039 s
  | Hartree multipole summation                :        4.636 s           4.640 s
  | Integration                                :        3.088 s           3.089 s
  | Solution of K.-S. eqns.                    :        0.004 s           0.004 s
  | Total energy evaluation                    :        0.000 s           0.000 s
------------------------------------------------------------

------------------------------------------------------------
          Begin self-consistency iteration #    6

  Date     :  20120920, Time     :  211232.985
------------------------------------------------------------
  Evaluating new KS density.
  Integration grid: deviation in total charge (<rho> - N_e) =   9.947598E-14
  Pulay mixing of updated and previous charge densities.

  Evaluating partitioned Hartree potential by multipole expansion.
  | Analytical far-field extrapolation by fixed multipoles:
  | Hartree multipole sum: apparent total charge =   0.113265E-04
  Summing up the Hartree potential.
  Time summed over all CPUs for potential: real work        9.046 s, elapsed        9.279 s
  | RMS charge density error from multipole expansion :   0.111035E-01

  Integrating Hamiltonian matrix: batch-based integration.
  Time summed over all CPUs for integration: real work        6.204 s, elapsed        6.292 s

  Updating Kohn-Sham eigenvalues, eigenvectors, occupation numbers, and Fermi level.
  Solving generalized eigenproblem
  Updating Kohn-Sham eigenvalues and eigenfunctions.
  Solving real generalised eigenvalue problem by standard LAPACK (fast)
  Determining occupation numbers for Kohn-Sham eigenstates.
  | Chemical potential (Fermi level) in eV                 : -.28939657E+01
  | Error in electron count due to remaining E_F inaccuracy: 0.00000000E+00
  | Maximum occupation number of highest empty state:  0.00E+00

  Highest occupied state (VBM) at     -5.54031803 eV
  | Occupation number:      2.00000000

  Lowest unoccupied state (CBM) at    -0.24761342 eV
  | Occupation number:      0.00000000

  Overall HOMO-LUMO gap:      5.29270461 eV.

  Total energy components:
  | Sum of eigenvalues            :        -188.50452709 Ha       -5129.46916677 eV
  | XC energy correction          :         -43.74773321 Ha       -1190.43638949 eV
  | XC potential correction       :          56.24588349 Ha        1530.52836214 eV
  | Free-atom electrostatic energy:        -154.66280101 Ha       -4208.58894612 eV
[...]
  C Energy GGA        :         -1.611274392 Ha            -43.845007027 eV
  Total XC Energy     :        -43.748177298 Ha          -1190.448473640 eV
  LDA X and C from self-consistent density 
  X Energy LDA        :        -38.255257715 Ha          -1040.978526818 eV
  C Energy LDA        :         -3.170866712 Ha            -86.283673300 eV
  ------------------------------------ 
  End decomposition of the XC Energy 
  ------------------------------------ 

 --------------------------------------------
  Constructing auxiliary basis (full product) ...

  Product basis:
  | charge radius: extent of product basis function
  | field radius: extent of its Coulomb potential
  | Species   l  charge radius    field radius  multipol momen
  |    C      0     2.625908 A      2.625908 A   -7.8270E-17 a.u.
  |    C      0     2.791423 A      2.791423 A   -3.8359E-17 a.u.
  |    C      1     2.791423 A      2.791423 A   -1.2664E-16 a.u.
  |    C      0     3.436235 A      3.436235 A    9.5446E-17 a.u.
  |    C      1     3.521286 A      3.521286 A    6.2208E-17 a.u.
  |    C      0     3.564598 A      3.564598 A   -1.3615E-16 a.u.
  |    C      2     3.608443 A      3.608443 A    1.6581E-16 a.u.
  |    C      3     3.697756 A      3.697756 A   -1.6904E-15 a.u.
  |    C      3     3.743239 A      3.743239 A    1.0194E-15 a.u.
  |    C      0     5.143845 A      5.143845 A   -8.7988E-17 a.u.
  |    C      1     5.271162 A      5.271162 A   -2.0416E-16 a.u.
  |    C      1     5.335997 A      5.335997 A   -2.5985E-16 a.u.
  |    C      2     5.401630 A      5.401630 A   -3.5333E-16 a.u.
  |    C      2     5.401630 A      5.401630 A   -9.2506E-16 a.u.
  |    C      2     5.401630 A      5.401630 A    9.4743E-16 a.u.
  |    C      4     3.040818 A    2.6718E+02 A      2.611074 a.u.
  |    C      3     3.789281 A    1.4432E+03 A      4.402197 a.u.
  |    C      2     5.535327 A    1.9029E+04 A      3.700382 a.u.
  |    C      1     5.335997 A    2.0643E+06 A      1.210968 a.u.
  |    C      0     5.081344 A    3.4128E+12 A      0.513216 a.u.
  |    N      0     2.196414 A      2.196414 A    1.3231E-16 a.u.
  |    N      1     2.334858 A      2.334858 A   -2.8553E-17 a.u.
  |    N      0     2.363576 A      2.363576 A   -1.3450E-16 a.u.
  |    N      0     2.874204 A      2.874204 A   -2.6981E-17 a.u.
  |    N      1     2.945344 A      2.945344 A    4.3036E-17 a.u.
  |    N      0     2.981572 A      2.981572 A    1.0098E-17 a.u.
  |    N      2     2.981572 A      2.981572 A    6.2740E-17 a.u.
  |    N      3     3.055370 A      3.055370 A   -3.3322E-16 a.u.
  |    N      3     3.092951 A      3.092951 A   -7.0212E-16 a.u.
  |    N      0     4.355438 A      4.355438 A   -8.4330E-17 a.u.
  |    N      1     4.409010 A      4.409010 A   -2.8042E-16 a.u.
  |    N      1     4.463241 A      4.463241 A   -8.8138E-17 a.u.
  |    N      2     4.518138 A      4.518138 A    1.5291E-16 a.u.
  |    N      2     4.518138 A      4.518138 A    2.7791E-16 a.u.
  |    N      2     4.518138 A      4.518138 A   -2.1117E-16 a.u.
  |    N      4     2.512557 A    2.2360E+02 A      1.071854 a.u.
  |    N      3     3.130994 A    1.2152E+03 A      2.212646 a.u.
  |    N      2     4.629968 A    1.6294E+04 A      2.323294 a.u.
  |    N      1     4.518138 A    1.7953E+06 A      0.915913 a.u.
  |    N      0     4.302517 A    3.1270E+12 A      0.470243 a.u.
  |    H      1     3.215356 A      3.215356 A    4.6346E-17 a.u.
  |    H      0     3.815562 A      3.815562 A    1.8667E-16 a.u.
  |    H      0     5.781930 A      5.781930 A    2.0489E-16 a.u.
  |    H      2     2.517934 A    8.6084E+03 A      0.342576 a.u.
  |    H      1     3.254905 A    1.2873E+06 A      0.470947 a.u.
  |    H      0     5.711676 A    3.4615E+12 A      0.520541 a.u.
  |    O      0     1.898511 A      1.898511 A    8.6632E-17 a.u.
  |    O      1     2.018177 A      2.018177 A   -2.0158E-17 a.u.
  |    O      0     2.043000 A      2.043000 A   -5.2036E-17 a.u.
  |    O      0     2.577176 A      2.577176 A    8.1757E-17 a.u.
  |    O      1     2.577176 A      2.577176 A    1.0505E-17 a.u.
  |    O      3     2.577176 A      2.577176 A    1.5257E-16 a.u.
  |    O      3     2.608875 A      2.608875 A    8.9488E-18 a.u.
  |    O      2     2.640965 A      2.640965 A   -1.3057E-17 a.u.
  |    O      0     3.764702 A      3.764702 A    5.7509E-17 a.u.
  |    O      1     3.905335 A      3.905335 A   -2.1380E-16 a.u.
  |    O      1     3.905335 A      3.905335 A   -1.6749E-17 a.u.
  |    O      2     4.001998 A      4.001998 A   -5.1479E-16 a.u.
  |    O      2     4.051222 A      4.051222 A   -7.3859E-16 a.u.
  |    O      4     2.093567 A    1.8915E+02 A      0.464268 a.u.
  |    O      3     2.640965 A    1.0378E+03 A      1.177223 a.u.
  |    O      2     4.101052 A    1.4442E+04 A      1.617496 a.u.
  |    O      1     3.953371 A    1.5995E+06 A      0.727023 a.u.
  |    O      0     3.718959 A    2.8977E+12 A      0.435758 a.u.

  | Shrink_full_auxil_basis : there are       64  radial auxiliary wave functions
                            accepted and      49 rejected.
  | Shrink_full_auxil_basis : there are totally     528 partial auxiliary wave functions.

  | Number of product basis functions per thread :   264
  | Minimal requirement for computer memories :           0.028 Gbs

  Basis pair condensation :      6555  -->       6540

 ----------------------------------------------------
  Integrating the 3-basis-function Coulomb matrix ...
  | i_atom:            1
  | i_atom:            2
  | i_atom:            3
  | i_atom:            4
  | i_atom:            5
  | i_atom:            6
  | i_atom:            7
  | i_atom:            8
  | i_atom:            9
  | i_atom:           10
  | i_atom:           11
  | i_atom:           12
  Integrating the Coulomb interaction matrix for auxiliary basis functions (by atoms)

  SBT integration errors (all should be 'small'):
  large logFT aliasing -> increase N/lnrange
  large SBT aliasing -> decrease lnk0 & increase lnk0+lnrange
  large SBT ringing -> decrease lnr0 & increase lnr0+lnrange
  |            El't  L: logFT-al.   small-k   large-k   small-r   large-r
  | Errors for    C  0:  2.04E-16  4.87E-46  9.49-105  5.63E-48  0.00E+00
  | Errors for    C  0:  1.09E-15  2.76E-45  1.42-107  3.00E-48  0.00E+00
  | Errors for    C  1:  5.50E-16  6.29E-57  1.66E-98  2.64E-64  0.00E+00
  | Errors for    C  0:  7.48E-15  2.00E-45  4.04-108  2.57E-47  0.00E+00
  | Errors for    C  1:  2.90E-15  4.27E-56  1.44E-90  1.49E-64  0.00E+00
  | Errors for    C  0:  1.60E-14  8.14E-45  1.28-104  1.09E-47  0.00E+00
  | Errors for    C  2:  1.48E-14  1.53E-67  0.00E+00  1.66E-81  0.00E+00
  | Errors for    C  3:  1.17E-13  5.46E-57  0.00E+00  1.30E-98  0.00E+00
  | Errors for    C  3:  4.97E-13  9.14E-57  8.54E-59  3.64E-98  0.00E+00
  | Errors for    C  0:  2.04E-14  2.17E-44  1.97-113  5.53E-48  0.00E+00
  | Errors for    C  1:  6.91E-15  1.93E-55  1.02E-62  4.69E-65  0.00E+00
  | Errors for    C  1:  5.54E-13  2.09E-55  7.03-116  1.45E-65  0.00E+00
  | Errors for    C  2:  2.51E-14  1.25E-66  0.00E+00  1.67E-81  0.00E+00
  | Errors for    C  2:  8.82E-14  8.21E-67  2.22-110  2.49E-80  0.00E+00
  | Errors for    C  2:  4.29E-14  9.21E-67  7.68-230  6.07E-80  0.00E+00
  | Errors for    C  4:  1.21E-13  7.43E-46  0.00E+00  4.40-116  0.00E+00
  | Errors for    C  3:  7.52E-13  6.27E-34  9.06E-56  1.81E-98  0.00E+00
  | Errors for    C  2:  4.55E-14  3.66E-44  5.67-135  1.35E-80  0.00E+00
  | Errors for    C  1:  3.08E-13  2.59E-33  7.60-103  1.03E-65  0.00E+00
  | Errors for    C  0:  6.75E-15  7.90E-23  5.43E-94  1.35E-48  0.00E+00
  | Errors for    N  0:  7.09E-16  3.18E-46  1.34-100  8.47E-48  0.00E+00
  | Errors for    N  1:  2.16E-15  3.34E-57  2.83E-98  4.80E-64  0.00E+00
  | Errors for    N  0:  3.75E-15  1.77E-45  1.28-109  4.66E-48  0.00E+00
  | Errors for    N  0:  1.26E-14  1.31E-45  3.02-122  3.93E-47  0.00E+00
  | Errors for    N  1:  2.05E-14  2.23E-56  1.22E-89  2.78E-64  0.00E+00
  | Errors for    N  0:  2.66E-14  5.20E-45  4.47-130  1.68E-47  0.00E+00
  | Errors for    N  2:  6.83E-15  6.44E-68  0.00E+00  3.93E-81  0.00E+00
  | Errors for    N  3:  2.18E-14  1.87E-57  0.00E+00  3.81E-98  0.00E+00
  | Errors for    N  3:  3.31E-13  3.08E-57  5.77E-59  1.07E-97  0.00E+00
  | Errors for    N  0:  4.50E-14  1.40E-44  1.26-123  8.44E-48  0.00E+00
  | Errors for    N  1:  4.22E-14  1.02E-55  1.93-111  9.09E-65  0.00E+00
  | Errors for    N  1:  3.11E-13  1.07E-55  5.78-148  2.99E-65  0.00E+00
  | Errors for    N  2:  1.35E-14  5.40E-67  0.00E+00  3.90E-81  0.00E+00
  | Errors for    N  2:  6.99E-15  3.67E-67  1.06E-42  5.59E-80  0.00E+00
  | Errors for    N  2:  1.21E-13  3.75E-67  2.66-220  1.47E-79  0.00E+00
  | Errors for    N  4:  6.57E-14  3.05E-46  0.00E+00  1.59-115  0.00E+00
  | Errors for    N  3:  3.85E-13  3.15E-34  4.31E-58  5.28E-98  0.00E+00
  | Errors for    N  2:  5.07E-14  2.30E-44  2.07E-86  3.06E-80  0.00E+00
  | Errors for    N  1:  1.49E-13  1.96E-33  5.37-110  2.06E-65  0.00E+00
  | Errors for    N  0:  1.26E-14  7.24E-23  6.26E-93  2.09E-48  0.00E+00
  | Errors for    H  1:  1.70E-14  2.87E-56  1.44-277  8.46E-66  0.00E+00
  | Errors for    H  0:  2.01E-15  6.26E-45  3.11-238  1.83E-49  0.00E+00
  | Errors for    H  0:  2.75E-15  2.31E-44  1.41-245  1.93E-49  0.00E+00
  | Errors for    H  2:  4.55E-15  3.39E-45  0.00E+00  1.18E-82  0.00E+00
  | Errors for    H  1:  1.90E-14  1.01E-33  1.12-274  5.88E-66  0.00E+00
  | Errors for    H  0:  4.71E-16  8.01E-23  2.62-232  6.02E-50  0.00E+00
  | Errors for    O  0:  9.08E-16  2.21E-46  5.82-103  1.20E-47  0.00E+00
  | Errors for    O  1:  1.06E-15  2.00E-57  1.37E-98  7.90E-64  0.00E+00
  | Errors for    O  0:  2.13E-15  1.21E-45  7.70-108  6.83E-48  0.00E+00
  | Errors for    O  0:  8.81E-16  3.59E-45  0.00E+00  3.20E-48  0.00E+00
  | Errors for    O  1:  8.28E-15  1.34E-56  1.63E-89  4.68E-64  0.00E+00
  | Errors for    O  3:  9.70E-14  7.32E-58  0.00E+00  9.71E-98  0.00E+00
  | Errors for    O  3:  3.41E-13  1.09E-57  3.03E-58  2.90E-97  0.00E+00
  | Errors for    O  2:  1.92E-14  3.45E-68  0.00E+00  7.72E-81  0.00E+00
  | Errors for    O  0:  1.09E-15  9.60E-45  6.68-110  6.37E-50  0.00E+00
  | Errors for    O  1:  1.23E-14  6.30E-56  5.88E-91  1.65E-64  0.00E+00
  | Errors for    O  1:  4.42E-13  5.69E-56  1.97E-34  1.09E-64  0.00E+00
  | Errors for    O  2:  1.11E-13  2.08E-67  2.55E-95  1.07E-79  0.00E+00
  | Errors for    O  2:  2.79E-14  3.07E-67  0.00E+00  7.42E-81  0.00E+00
  | Errors for    O  4:  9.68E-14  1.32E-46  0.00E+00  5.33-115  0.00E+00
  | Errors for    O  3:  5.19E-13  1.68E-34  1.16E-53  1.38E-97  0.00E+00
  | Errors for    O  2:  3.55E-14  1.60E-44  2.04E-63  3.55E-80  0.00E+00
  | Errors for    O  1:  2.12E-13  1.55E-33  4.19-109  1.48E-65  0.00E+00
  | Errors for    O  0:  6.28E-16  6.71E-23  1.89E-88  1.46E-49  0.00E+00

  Atomic logSBT for 2-center Coulomb matrix    :  max(cpu_time)    wall_clock(cpu1)
  | Multiplication with kernel                 :        0.284 s           0.294 s
  | Main matrix multiplication                 :        0.508 s           0.424 s
  | Analytic angular integration               :        0.056 s           0.025 s
  | Kernel construction                        :        0.196 s           0.082 s
  | Overall 2-center overlap time              :        1.160 s           0.880 s

  Difference of Coulomb matrix to its transposed:  3.3307E-16
  Task     0: Eigenvalues of the Coulomb matrix range from    7.7234E+00 to    2.0634E-05.
  Task     0: Using      528   eigenvalues out of rank      528   Coulomb matrix (auxiliary basis).

  Multiplying V^-0.5 x ovlp_3fn (1d-scalapack)

  End of correlation preparation               :  max(cpu_time)    wall_clock(cpu1)
  | Product basis setup: Total time            :       86.777 s          86.868 s
  | Product basis: | 3-center integrations     :       84.557 s          84.639 s
  | Product basis: | 2-center integrations     :        1.624 s           1.627 s
  | Product basis: | 2-center linear algebra   :        0.360 s           0.357 s
  | Product basis: | 3-center x 2-center       :        0.184 s           0.182 s

--------------------------------------------
          RPA total energy calculation starts ...

  The first valence state in the frozen-core algorithm :    7
  The ovlp_3KS matrix takes another      8 MiB x      2 procs =       0.015 GiB.


  Initialising transformed Gauss-Legendre time and frequency grids
  Number of freuency points for self energy.....: 40
  Number of frequency points....................: 40

  Starts to calculate the exchange energy ...

  Integrating the xc potential matrix  for basis functions ...

  Starts to calculate the single excitation correction ...

  | Single excitation contribution to the correlation energy:  -2.43738678 eV
  | Renormalized single excitation contribution (diag) to the correlation energy:  -1.46826861  eV


  Starts to calculate the renormalized single excitation (full) correction ...
  Diagonalizing the RSE-HF-Occ matrix  and checking for singularities.

  Diagonalizing the RSE-HF-Unocc matrix  and checking for singularities.


  | Renormalized single excitation contribution (full) to the correlation energy:  -1.43468121  eV


 ----------------------------------- ------------------------------------
  Start to calculate the RPA correlation energy  ... 
  HOMO and first non-fully-occupied orbitals:   24   25

 | i_freq    1            0.000441
 | i_freq    2            0.002329
 | i_freq    3            0.005750
 | i_freq    4            0.010747
 | i_freq    5            0.017381
 | i_freq    6            0.025735
 | i_freq    7            0.035917
 | i_freq    8            0.048062
 | i_freq    9            0.062333
 | i_freq   10            0.078932
 | i_freq   11            0.098102
 | i_freq   12            0.120134
 | i_freq   13            0.145383
 | i_freq   14            0.174274
 | i_freq   15            0.207324
 | i_freq   16            0.245160
 | i_freq   17            0.288549
 | i_freq   18            0.338436
 | i_freq   19            0.395990
 | i_freq   20            0.462675
 | i_freq   21            0.540336
 | i_freq   22            0.631329
 | i_freq   23            0.738693
 | i_freq   24            0.866404
 | i_freq   25            1.019743
 | i_freq   26            1.205842
 | i_freq   27            1.434520
 | i_freq   28            1.719594
 | i_freq   29            2.081004
 | i_freq   30            2.548378
 | i_freq   31            3.167279
 | i_freq   32            4.010715
 | i_freq   33            5.201652
 | i_freq   34            6.960432
 | i_freq   35            9.714380
 | i_freq   36           14.383789
 | i_freq   37           23.262462
 | i_freq   38           43.475277
 | i_freq   39          107.331113
 | i_freq   40          566.943404

 -----------------------------------------------------------------------------
    RPA correlation energy :          -1.49496779  Ha,       -40.68014342  eV

 --------------------------------------------------------------------
    Exact exchange energy             :          -42.14909897 Ha,       -1146.93533846 eV
    DFT/HF exchange energy            :          -38.25525771 Ha,       -1040.97852682 eV

    DFT/HF total energy               :         -339.45139952 Ha,       -9236.94255130 eV
    Exchange-only total energy        :         -337.85232119 Ha,       -9193.42941611 eV
    RPA total energy                  :         -339.34728898 Ha,       -9234.10955953 eV

    RPA+SE total energy               :         -339.43686130 Ha,       -9236.54694631 eV
    RPA+rSE (diag) total energy       :         -339.40124686 Ha,       -9235.57782814 eV
    RPA+rSE (full) total energy       :         -339.40001255 Ha,       -9235.54424073 eV

    RPA+ total energy                 :         -338.41993318 Ha,       -9208.87492418 eV

 ----------------------------------------------------------------------------


------------------------------------------------------------------------------
  Final output of selected total energy values:

  The following output summarizes some interesting total energy values
  at the end of a run (AFTER all relaxation, molecular dynamics, etc.).

  | Total energy of the DFT / Hartree-Fock s.c.f. calculation      :          -9236.942551295 eV
  | Final zero-broadening corrected energy (caution - metals only) :          -9236.942551295 eV
  | Total energy after the post-s.c.f. correlation calculation     :          -9234.109559528 eV
  | For reference only, the value of 1 Hartree used in FHI-aims is :             27.211384500 eV

  Before relying on these values, please be sure to understand exactly which
  total energy value is referred to by a given number. Different objects may
  all carry the same name 'total energy'. Definitions:

  Total energy of the DFT / Hartree-Fock s.c.f. calculation:
  | Note that this energy does not include ANY quantities calculated after the
  | s.c.f. cycle, in particular not ANY RPA, MP2, etc. many-body perturbation terms.

  Final zero-broadening corrected energy:
  | For metallic systems only, a broadening of the occupation numbers at the Fermi
  | level can be extrapolated back to zero broadening by an electron-gas inspired
  | formula. For all systems that are not real metals, this value can be
  | meaningless and should be avoided.

  Total energy of the post-s.c.f. correlation calculation        :
  | The actual meaning of this energy depends on the setting for the 'total_energy_method'
  | keyword (MP2, RPA, rPT2, etc). If not sure, compare to the results listed above.

------------------------------------------------------------------------------

------------------------------------------------------------
          Leaving FHI-aims.
          Date     :  20120920, Time     :  211510.303

          Computational steps:
          | Number of self-consistency cycles          :           11

          Detailed time accounting                     :  max(cpu_time)    wall_clock(cpu1)
          | Total time                                 :      219.614 s         219.862 s
          | Preparation time                           :        0.392 s           0.406 s
          | Grid partitioning                          :        0.860 s           0.861 s
          | Preloading free-atom quantities on grid    :        0.200 s           0.200 s
          | Free-atom superposition energy             :        0.844 s           0.846 s
          | Total time for integrations                :       38.602 s          38.632 s
          | Product basis setup: Total time            :       86.777 s          86.868 s
          | Product basis: | 3-center integrations     :       84.557 s          84.639 s
          | Product basis: | 2-center integrations     :        1.624 s           1.627 s
          | Product basis: | 2-center linear algebra   :        0.360 s           0.357 s
          | Product basis: | 3-center x 2-center       :        0.184 s           0.182 s
          | Transforming ovlp_3fn to ovlp_3KS          :        0.124 s           0.123 s
          | Total time for evaluating polarisability   :        1.464 s           1.462 s
          | Total time for RPA corr. energy            :        0.392 s           0.398 s
          | Total time for solution of K.-S. equations :        0.064 s           0.061 s
          | Total time for density update              :       31.150 s          31.171 s
          | Total time for mixing                      :        0.928 s           0.917 s
          | Total time for Hartree multipole update    :        0.428 s           0.433 s
          | Total time for Hartree multipole sum       :       50.975 s          51.021 s
          | Total time for total energy evaluation     :        0.004 s           0.000 s

          Have a nice day.
------------------------------------------------------------
