  MPI-parallelism will be employed.
------------------------------------------------------------
          Invoking FHI-aims ...
          Version 081912
          Git rev. (modified): da8b1f0 Change by Igor:
          Compiled on 2012/08/22 at 21:40:32 on host theobook58.

          When using FHI-aims, please cite the following reference:

          Volker Blum, Ralf Gehrke, Felix Hanke, Paula Havu,
          Ville Havu, Xinguo Ren, Karsten Reuter, and Matthias Scheffler,
          'Ab Initio Molecular Simulations with Numeric Atom-Centered Orbitals: FHI-aims',
          Computer Physics Communications 180, 2175-2196 (2009)

------------------------------------------------------------

  Date     :  20120920, Time     :  211511.430
  Time zero on CPU 1             :   0.160000000000000E-01  s.
  Internal wall clock time zero  :           117407711.430  s.

  Using        2 parallel tasks.
  Task        0 on host theobook58 reporting.
  Task        1 on host theobook58 reporting.

  Performing system and environment tests:
  | Environment variable OMP_NUM_THREADS correctly set to 1.
  | Checking for scalapack...
  | No scalapack compiled in.

  Obtaining array dimensions for all initial allocations:
  
  -----------------------------------------------------------------------
  Parsing control.in (first pass over file, find array dimensions only).
  The contents of control.in will be repeated verbatim below
  unless switched off by setting 'verbatim_writeout .false.' .
  in the first line of control.in .
  -----------------------------------------------------------------------
  
  xc                      pbe
  total_energy_method     rpa
  relativistic            none
  occupation_type         integer 0.0001
  mixer                   pulay
  n_max_pulay             10
  charge_mix_param        0.6
  sc_accuracy_rho         1E-6
  sc_accuracy_eev         1E-4
  sc_accuracy_etot        1E-6
  sc_iter_limit           200
  rpa_frozen_core         1
  charge                  0
  ################################################################################
  #
  #  FHI-aims code project
  # Igor Ying Zhang and Xinguo Ren, Fritz Haber Institute Berlin, 2012
  #
  #  Suggested "cc-pVDZ" defaults for C atom (to be pasted into control.in file)
  #
  ################################################################################
    species        C
  #     global species definitions
      nucleus             6
      mass                12.0107
  #
      l_hartree           6
  #
      cut_pot             4.0  2.0  1.0
      basis_dep_cutoff    0e-0
  #
      radial_base         34 7.0
      radial_multiplier   6
      angular_grids       specified
        division   0.2187   50
        division   0.4416  110
        division   0.6335  194
        division   0.7727  302
        division   0.8772  434
  #      division   0.9334  590
  #      division   0.9924  770
  #      division   1.0230  974
  #      division   1.5020 1202
  #     outer_grid  974
        outer_grid  434
  ################################################################################
  #
  #  Definition of "minimal" basis
  #
  ################################################################################
  #     valence basis states
      valence      2  s   2.
      valence      2  p   2.
  #     ion occupancy
      ion_occ      2  s   1.
      ion_occ      2  p   1.
  ################################################################################
  #
  #   For exact comparison with all GTO-based codes, one or more of
  #   the following flags are needed:
  #
      include_min_basis   .false.
      pure_gauss          .true.
  #
  
  # C cc-pVDZ
   gaussian 0 8
      6665.0000000            0.0006920
      1000.0000000            0.0053290
       228.0000000            0.0270770
        64.7100000            0.1017180
        21.0600000            0.2747400
         7.4950000            0.4485640
         2.7970000            0.2850740
         0.5215000            0.0152040
   gaussian 0 8
      6665.0000000           -0.0001460
      1000.0000000           -0.0011540
       228.0000000           -0.0057250
        64.7100000           -0.0233120
        21.0600000           -0.0639550
         7.4950000           -0.1499810
         2.7970000           -0.1272620
         0.5215000            0.5445290
   gaussian 0 1 0.1596000
   gaussian 1 3
         9.4390000            0.0381090
         2.0020000            0.2094800
         0.5456000            0.5085570
   gaussian 1 1 0.1517000
   gaussian 2 1 0.5500000
  ################################################################################
  #
  #  FHI-aims code project
  # Igor Ying Zhang and Xinguo Ren, Fritz Haber Institute Berlin, 2012
  #
  #  Suggested "cc-pVDZ" defaults for O atom (to be pasted into control.in file)
  #
  ################################################################################
    species        O
  #     global species definitions
      nucleus             8
      mass                15.9994
  #
      l_hartree           6
  #
      cut_pot             4.0  2.0  1.0
      basis_dep_cutoff    0e-0
  #
      radial_base         36 7.0
      radial_multiplier   6
      angular_grids       specified
        division   0.1817   50
        division   0.3417  110
        division   0.4949  194
        division   0.6251  302
        division   0.8014  434
  #      division   0.8507  590
  #      division   0.8762  770
  #      division   0.9023  974
  #      division   1.2339 1202
  #      outer_grid 974
        outer_grid  434
  ################################################################################
  #
  #  Definition of "minimal" basis
  #
  ################################################################################
  #     valence basis states
      valence      2  s   2.
      valence      2  p   4.
  #     ion occupancy
      ion_occ      2  s   1.
      ion_occ      2  p   3.
  ################################################################################
  #
  #   For exact comparison with all GTO-based codes, one or more of
  #   the following flags are needed:
  #
      include_min_basis   .false.
      pure_gauss          .true.
  #
  
  # O cc-pVDZ
   gaussian 0 8
     11720.0000000            0.0007100
      1759.0000000            0.0054700
       400.8000000            0.0278370
       113.7000000            0.1048000
        37.0300000            0.2830620
        13.2700000            0.4487190
         5.0250000            0.2709520
         1.0130000            0.0154580
   gaussian 0 8
     11720.0000000           -0.0001600
      1759.0000000           -0.0012630
       400.8000000           -0.0062670
       113.7000000           -0.0257160
        37.0300000           -0.0709240
        13.2700000           -0.1654110
         5.0250000           -0.1169550
         1.0130000            0.5573680
   gaussian 0 1 0.3023000
   gaussian 1 3
        17.7000000            0.0430180
         3.8540000            0.2289130
         1.0460000            0.5087280
   gaussian 1 1 0.2753000
   gaussian 2 1 1.1850000
  ################################################################################
  #
  #  FHI-aims code project
  # Igor Ying Zhang and Xinguo Ren, Fritz Haber Institute Berlin, 2012
  #
  #  Suggested "cc-pVDZ" defaults for N atom (to be pasted into control.in file)
  #
  ################################################################################
    species        N
  #     global species definitions
      nucleus             7
      mass                14.0067
  #
      l_hartree           6
  #
      cut_pot             4.0  2.0  1.0
      basis_dep_cutoff    0e-0
  #
      radial_base         35 7.0
      radial_multiplier   6
      angular_grids       specified
        division   0.1841   50
        division   0.3514  110
        division   0.5126  194
        division   0.6292  302
        division   0.6939  434
  #      division   0.7396  590
  #      division   0.7632  770
  #      division   0.8122  974
  #      division   1.1604 1202
  #      outer_grid  974
        outer_grid  434
  ################################################################################
  #
  #  Definition of "minimal" basis
  #
  ################################################################################
  #     valence basis states
      valence      2  s   2.
      valence      2  p   3.
  #     ion occupancy
      ion_occ      2  s   1.
      ion_occ      2  p   2.
  ################################################################################
  #
  #   For exact comparison with all GTO-based codes, one or more of
  #   the following flags are needed:
  #
      include_min_basis   .false.
      pure_gauss          .true.
  #
  
  # N cc-pVDZ
   gaussian 0 8
      9046.0000000            0.0007000
      1357.0000000            0.0053890
       309.3000000            0.0274060
        87.7300000            0.1032070
        28.5600000            0.2787230
        10.2100000            0.4485400
         3.8380000            0.2782380
         0.7466000            0.0154400
   gaussian 0 8
      9046.0000000           -0.0001530
      1357.0000000           -0.0012080
       309.3000000           -0.0059920
        87.7300000           -0.0245440
        28.5600000           -0.0674590
        10.2100000           -0.1580780
         3.8380000           -0.1218310
         0.7466000            0.5490030
   gaussian 0 1 0.2248000
   gaussian 1 3
        13.5500000            0.0399190
         2.9170000            0.2171690
         0.7973000            0.5103190
   gaussian 1 1 0.2185000
   gaussian 2 1 0.8170000
  ################################################################################
  #
  #  FHI-aims code project
  # Igor Ying Zhang and Xinguo Ren, Fritz Haber Institute Berlin, 2012
  #
  #  Suggested "cc-pVDZ" defaults for H atom (to be pasted into control.in file)
  #
  ################################################################################
    species        H
  #     global species definitions
      nucleus             1
      mass                1.00794
  #
      l_hartree           6
  #
      cut_pot             4.0  2.0  1.0
      basis_dep_cutoff    0e-0
  #
      radial_base         24 7.0
      radial_multiplier   6
      angular_grids       specified
        division   0.1930   50
        division   0.3175  110
        division   0.4293  194
        division   0.5066  302
        division   0.5626  434
  #      division   0.5922  590
  #      division   0.6227  974
  #      division   0.6868 1202
  #      outer_grid  770
        outer_grid  434
  ################################################################################
  #
  #  Definition of "minimal" basis
  #
  ################################################################################
  #     valence basis states
      valence      1  s   1.
  #     ion occupancy
      ion_occ      1  s   0.5
  ################################################################################
  #
  #   For exact comparison with all GTO-based codes, one or more of
  #   the following flags are needed:
  #
      include_min_basis   .false.
      pure_gauss          .true.
  #
  
  # H cc-pVDZ
   gaussian 0 3
        13.0100000            0.0196850
         1.9620000            0.1379770
         0.4446000            0.4781480
   gaussian 0 1 0.1220000
   gaussian 1 1 0.7270000
  
  -----------------------------------------------------------------------
  Completed first pass over input file control.in .
  -----------------------------------------------------------------------
  
  
  -----------------------------------------------------------------------
  Parsing geometry.in (first pass over file, find array dimensions only).
  The contents of geometry.in will be repeated verbatim below
  unless switched off by setting 'verbatim_writeout .false.' .
  in the first line of geometry.in .
  -----------------------------------------------------------------------
  
  atom     -0.29406242      0.57696416      0.00000000    C
  atom      0.27238674      1.66771547      0.00000000    O
  atom      0.31681676     -0.61840318      0.00000000    N
  atom     -0.24000940     -1.45295541      0.00000000    H
  atom      1.33734305     -0.68370119      0.00000000    H
  atom     -1.39247473      0.51038014      0.00000000    H
  
  -----------------------------------------------------------------------
  Completed first pass over input file geometry.in .
  -----------------------------------------------------------------------
  

  Basic array size parameters: 
  | Number of species                 :        4
  | Number of atoms                   :        6
  | Max. basis fn. angular momentum   :        2
  | Max. atomic/ionic basis occupied n:        2
  | Max. number of basis fn. types    :        1
  | Max. radial fns per species/type  :        7
  | Max. logarithmic grid size        :     1301
  | Max. radial integration grid size :      221
  | Max. angular integration grid size:      434
  | Max. angular grid division number :        8
  | Radial grid for Hartree potential :     1301
  | Number of spin channels           :        1

------------------------------------------------------------
          Reading file control.in.
------------------------------------------------------------
  XC: Using PBE gradient-corrected functionals.
  RPA correlation energy calculation will be started after the DFT/HF calculation.
  Non-relativistic treatment of kinetic energy.
  Occupation type: Integer occupation.
  Using pulay charge density mixing.
  Pulay mixing - number of memorized iterations:   10
  Charge density mixing - mixing parameter:     0.6000
  Convergence accuracy of self-consistent charge density: 0.1000E-05
  Convergence accuracy of sum of eigenvalues: 0.1000E-03
  Convergence accuracy of total energy: 0.1000E-05
  Maximum number of s.-c. iterations  :   200
  Core electrons are frozen in the RPA calculation :     1
  Charge =   0.000000E+00: Neutral system requested explicitly.

  Reading configuration options for species C                   .
  | Found nuclear charge :   6.0000
  | Found atomic mass :    12.010700000000000      amu
  | Found l_max for Hartree potential  :   6
  | Found cutoff potl. onset [A], width [A], scale factor :    4.00000    2.00000    1.00000
  | Threshold for basis-dependent cutoff potential is   0.000000E+00
  | Found data for basic radial integration grid :    34 points, outermost radius =    7.000 A
  | Found multiplier for basic radial grid :   6
  | Found angular grid specification: user-specified.
  | Specified grid contains     6 separate shells.
  | Check grid settings after all constraints further below.
  | Found free-atom valence shell :  2 s   2.000
  | Found free-atom valence shell :  2 p   2.000
  | No ionic wave fns used. Skipping ion_occ.
  | No ionic wave fns used. Skipping ion_occ.
  | Found request to include minimal basis fns. :     F
  | Found request to include pure gaussian fns. :     T
  | Found contracted cartesian Gaussian basis function :  L = 0 ,   8 elementary Gaussians:
  |   alpha = 0.666500E+04 weight = 0.692000E-03
  |   alpha = 0.100000E+04 weight = 0.532900E-02
  |   alpha = 0.228000E+03 weight = 0.270770E-01
  |   alpha = 0.647100E+02 weight = 0.101718E+00
  |   alpha = 0.210600E+02 weight = 0.274740E+00
  |   alpha = 0.749500E+01 weight = 0.448564E+00
  |   alpha = 0.279700E+01 weight = 0.285074E+00
  |   alpha = 0.521500E+00 weight = 0.152040E-01
  |   In terms of angular momentum, this radial function adds: 
  |     1 s-type basis function
  | Found contracted cartesian Gaussian basis function :  L = 0 ,   8 elementary Gaussians:
  |   alpha = 0.666500E+04 weight = -.146000E-03
  |   alpha = 0.100000E+04 weight = -.115400E-02
  |   alpha = 0.228000E+03 weight = -.572500E-02
  |   alpha = 0.647100E+02 weight = -.233120E-01
  |   alpha = 0.210600E+02 weight = -.639550E-01
  |   alpha = 0.749500E+01 weight = -.149981E+00
  |   alpha = 0.279700E+01 weight = -.127262E+00
  |   alpha = 0.521500E+00 weight = 0.544529E+00
  |   In terms of angular momentum, this radial function adds: 
  |     1 s-type basis function
  | Found primitive cartesian Gaussian basis function :  0 0.159600E+00
  |   In terms of angular momentum, this radial function adds: 
  |     1 s-type basis function
  | Found contracted cartesian Gaussian basis function :  L = 1 ,   3 elementary Gaussians:
  |   alpha = 0.943900E+01 weight = 0.381090E-01
  |   alpha = 0.200200E+01 weight = 0.209480E+00
  |   alpha = 0.545600E+00 weight = 0.508557E+00
  |   In terms of angular momentum, this radial function adds: 
  |     3 p-type basis functions
  | Found primitive cartesian Gaussian basis function :  1 0.151700E+00
  |   In terms of angular momentum, this radial function adds: 
  |     3 p-type basis functions
  | Found primitive cartesian Gaussian basis function :  2 0.550000E+00
  |   In terms of angular momentum, this radial function adds: 
  |     5 d-type basis functions
  Species C                   : Missing cutoff potential type.
  Defaulting to exp(1/x)/(1-x)^2 type cutoff potential.
  Species C : No 'logarithmic' tag. Using default grid for free atom:
  | Default logarithmic grid data [bohr] : 0.1000E-03 0.1000E+03 0.1012E+01
  Species C : On-site basis accuracy parameter (for Gram-Schmidt orthonormalisation) not specified.
  Using default value basis_acc =  0.1000000E-03.
  Species C                   : Using default innermost maximum threshold i_radial=  2 for radial functions.
  Species C                   : Default cutoff onset for free atom density etc. is infinite
  since the product basis is used (hybrid functionals, Hartree-Fock, GW etc.).
  Species C                   : Basic radial grid will be enhanced according to radial_multiplier =   6, to contain   209 grid points.

  Reading configuration options for species O                   .
  | Found nuclear charge :   8.0000
  | Found atomic mass :    15.999400000000000      amu
  | Found l_max for Hartree potential  :   6
  | Found cutoff potl. onset [A], width [A], scale factor :    4.00000    2.00000    1.00000
  | Threshold for basis-dependent cutoff potential is   0.000000E+00
  | Found data for basic radial integration grid :    36 points, outermost radius =    7.000 A
  | Found multiplier for basic radial grid :   6
  | Found angular grid specification: user-specified.
  | Specified grid contains     6 separate shells.
  | Check grid settings after all constraints further below.
  | Found free-atom valence shell :  2 s   2.000
  | Found free-atom valence shell :  2 p   4.000
  | No ionic wave fns used. Skipping ion_occ.
  | No ionic wave fns used. Skipping ion_occ.
  | Found request to include minimal basis fns. :     F
  | Found request to include pure gaussian fns. :     T
  | Found contracted cartesian Gaussian basis function :  L = 0 ,   8 elementary Gaussians:
  |   alpha = 0.117200E+05 weight = 0.710000E-03
  |   alpha = 0.175900E+04 weight = 0.547000E-02
  |   alpha = 0.400800E+03 weight = 0.278370E-01
  |   alpha = 0.113700E+03 weight = 0.104800E+00
  |   alpha = 0.370300E+02 weight = 0.283062E+00
  |   alpha = 0.132700E+02 weight = 0.448719E+00
  |   alpha = 0.502500E+01 weight = 0.270952E+00
  |   alpha = 0.101300E+01 weight = 0.154580E-01
  |   In terms of angular momentum, this radial function adds: 
  |     1 s-type basis function
  | Found contracted cartesian Gaussian basis function :  L = 0 ,   8 elementary Gaussians:
  |   alpha = 0.117200E+05 weight = -.160000E-03
  |   alpha = 0.175900E+04 weight = -.126300E-02
  |   alpha = 0.400800E+03 weight = -.626700E-02
  |   alpha = 0.113700E+03 weight = -.257160E-01
  |   alpha = 0.370300E+02 weight = -.709240E-01
  |   alpha = 0.132700E+02 weight = -.165411E+00
  |   alpha = 0.502500E+01 weight = -.116955E+00
  |   alpha = 0.101300E+01 weight = 0.557368E+00
  |   In terms of angular momentum, this radial function adds: 
  |     1 s-type basis function
  | Found primitive cartesian Gaussian basis function :  0 0.302300E+00
  |   In terms of angular momentum, this radial function adds: 
  |     1 s-type basis function
  | Found contracted cartesian Gaussian basis function :  L = 1 ,   3 elementary Gaussians:
  |   alpha = 0.177000E+02 weight = 0.430180E-01
  |   alpha = 0.385400E+01 weight = 0.228913E+00
  |   alpha = 0.104600E+01 weight = 0.508728E+00
  |   In terms of angular momentum, this radial function adds: 
  |     3 p-type basis functions
  | Found primitive cartesian Gaussian basis function :  1 0.275300E+00
  |   In terms of angular momentum, this radial function adds: 
  |     3 p-type basis functions
  | Found primitive cartesian Gaussian basis function :  2 0.118500E+01
  |   In terms of angular momentum, this radial function adds: 
  |     5 d-type basis functions
  Species O                   : Missing cutoff potential type.
  Defaulting to exp(1/x)/(1-x)^2 type cutoff potential.
  Species O : No 'logarithmic' tag. Using default grid for free atom:
  | Default logarithmic grid data [bohr] : 0.1000E-03 0.1000E+03 0.1012E+01
  Species O : On-site basis accuracy parameter (for Gram-Schmidt orthonormalisation) not specified.
  Using default value basis_acc =  0.1000000E-03.
  Species O                   : Using default innermost maximum threshold i_radial=  2 for radial functions.
  Species O                   : Default cutoff onset for free atom density etc. is infinite
  since the product basis is used (hybrid functionals, Hartree-Fock, GW etc.).
  Species O                   : Basic radial grid will be enhanced according to radial_multiplier =   6, to contain   221 grid points.

  Reading configuration options for species N                   .
  | Found nuclear charge :   7.0000
  | Found atomic mass :    14.006700000000000      amu
  | Found l_max for Hartree potential  :   6
  | Found cutoff potl. onset [A], width [A], scale factor :    4.00000    2.00000    1.00000
  | Threshold for basis-dependent cutoff potential is   0.000000E+00
  | Found data for basic radial integration grid :    35 points, outermost radius =    7.000 A
  | Found multiplier for basic radial grid :   6
  | Found angular grid specification: user-specified.
  | Specified grid contains     6 separate shells.
  | Check grid settings after all constraints further below.
  | Found free-atom valence shell :  2 s   2.000
  | Found free-atom valence shell :  2 p   3.000
  | No ionic wave fns used. Skipping ion_occ.
  | No ionic wave fns used. Skipping ion_occ.
  | Found request to include minimal basis fns. :     F
  | Found request to include pure gaussian fns. :     T
  | Found contracted cartesian Gaussian basis function :  L = 0 ,   8 elementary Gaussians:
  |   alpha = 0.904600E+04 weight = 0.700000E-03
  |   alpha = 0.135700E+04 weight = 0.538900E-02
  |   alpha = 0.309300E+03 weight = 0.274060E-01
  |   alpha = 0.877300E+02 weight = 0.103207E+00
  |   alpha = 0.285600E+02 weight = 0.278723E+00
  |   alpha = 0.102100E+02 weight = 0.448540E+00
  |   alpha = 0.383800E+01 weight = 0.278238E+00
  |   alpha = 0.746600E+00 weight = 0.154400E-01
  |   In terms of angular momentum, this radial function adds: 
  |     1 s-type basis function
  | Found contracted cartesian Gaussian basis function :  L = 0 ,   8 elementary Gaussians:
  |   alpha = 0.904600E+04 weight = -.153000E-03
  |   alpha = 0.135700E+04 weight = -.120800E-02
  |   alpha = 0.309300E+03 weight = -.599200E-02
  |   alpha = 0.877300E+02 weight = -.245440E-01
  |   alpha = 0.285600E+02 weight = -.674590E-01
  |   alpha = 0.102100E+02 weight = -.158078E+00
  |   alpha = 0.383800E+01 weight = -.121831E+00
  |   alpha = 0.746600E+00 weight = 0.549003E+00
  |   In terms of angular momentum, this radial function adds: 
  |     1 s-type basis function
  | Found primitive cartesian Gaussian basis function :  0 0.224800E+00
  |   In terms of angular momentum, this radial function adds: 
  |     1 s-type basis function
  | Found contracted cartesian Gaussian basis function :  L = 1 ,   3 elementary Gaussians:
  |   alpha = 0.135500E+02 weight = 0.399190E-01
  |   alpha = 0.291700E+01 weight = 0.217169E+00
  |   alpha = 0.797300E+00 weight = 0.510319E+00
  |   In terms of angular momentum, this radial function adds: 
  |     3 p-type basis functions
  | Found primitive cartesian Gaussian basis function :  1 0.218500E+00
  |   In terms of angular momentum, this radial function adds: 
  |     3 p-type basis functions
  | Found primitive cartesian Gaussian basis function :  2 0.817000E+00
  |   In terms of angular momentum, this radial function adds: 
  |     5 d-type basis functions
  Species N                   : Missing cutoff potential type.
  Defaulting to exp(1/x)/(1-x)^2 type cutoff potential.
  Species N : No 'logarithmic' tag. Using default grid for free atom:
  | Default logarithmic grid data [bohr] : 0.1000E-03 0.1000E+03 0.1012E+01
  Species N : On-site basis accuracy parameter (for Gram-Schmidt orthonormalisation) not specified.
  Using default value basis_acc =  0.1000000E-03.
  Species N                   : Using default innermost maximum threshold i_radial=  2 for radial functions.
  Species N                   : Default cutoff onset for free atom density etc. is infinite
  since the product basis is used (hybrid functionals, Hartree-Fock, GW etc.).
  Species N                   : Basic radial grid will be enhanced according to radial_multiplier =   6, to contain   215 grid points.

  Reading configuration options for species H                   .
  | Found nuclear charge :   1.0000
  | Found atomic mass :    1.0079400000000001      amu
  | Found l_max for Hartree potential  :   6
  | Found cutoff potl. onset [A], width [A], scale factor :    4.00000    2.00000    1.00000
  | Threshold for basis-dependent cutoff potential is   0.000000E+00
  | Found data for basic radial integration grid :    24 points, outermost radius =    7.000 A
  | Found multiplier for basic radial grid :   6
  | Found angular grid specification: user-specified.
  | Specified grid contains     6 separate shells.
  | Check grid settings after all constraints further below.
  | Found free-atom valence shell :  1 s   1.000
  | No ionic wave fns used. Skipping ion_occ.
  | Found request to include minimal basis fns. :     F
  | Found request to include pure gaussian fns. :     T
  | Found contracted cartesian Gaussian basis function :  L = 0 ,   3 elementary Gaussians:
  |   alpha = 0.130100E+02 weight = 0.196850E-01
  |   alpha = 0.196200E+01 weight = 0.137977E+00
  |   alpha = 0.444600E+00 weight = 0.478148E+00
  |   In terms of angular momentum, this radial function adds: 
  |     1 s-type basis function
  | Found primitive cartesian Gaussian basis function :  0 0.122000E+00
  |   In terms of angular momentum, this radial function adds: 
  |     1 s-type basis function
  | Found primitive cartesian Gaussian basis function :  1 0.727000E+00
  |   In terms of angular momentum, this radial function adds: 
  |     3 p-type basis functions
  Species H                   : Missing cutoff potential type.
  Defaulting to exp(1/x)/(1-x)^2 type cutoff potential.
  Species H : No 'logarithmic' tag. Using default grid for free atom:
  | Default logarithmic grid data [bohr] : 0.1000E-03 0.1000E+03 0.1012E+01
  Species H : On-site basis accuracy parameter (for Gram-Schmidt orthonormalisation) not specified.
  Using default value basis_acc =  0.1000000E-03.
  Species H                   : Using default innermost maximum threshold i_radial=  2 for radial functions.
  Species H                   : Default cutoff onset for free atom density etc. is infinite
  since the product basis is used (hybrid functionals, Hartree-Fock, GW etc.).
  Species H                   : Basic radial grid will be enhanced according to radial_multiplier =   6, to contain   149 grid points.

  Finished reading input file 'control.in'. Consistency checks are next.

  Species C: Using default value for prodbas_acc =   1.000000E-02.
  Species C: Using default value max_l_prodbas =     5.
  Species O: Using default value for prodbas_acc =   1.000000E-02.
  Species O: Using default value max_l_prodbas =     5.
  Species N: Using default value for prodbas_acc =   1.000000E-02.
  Species N: Using default value max_l_prodbas =     5.
  Species H: Using default value for prodbas_acc =   1.000000E-02.
  Species H: Using default value max_l_prodbas =     5.
  Target number of points in a grid batch is not set. Defaulting to  100
  Method for grid partitioning is not set. Defaulting to parallel hash+maxmin partitioning.
  Batch size limit is not set. Defaulting to    200
  By default, will store active basis functions for each batch.
  If in need of memory, prune_basis_once .false. can be used to disable this option.
  communication_type for Hartree potential was not specified.
  Defaulting to calc_hartree .
  Pulay mixer: Number of initial linear mixing iterations not set.
  Defaulting to    0 iterations.
  Work space size for distributed Hartree potential not set.
  Defaulting to   0.200000E+03 MB.
  Algorithm-dependent basis array size parameters:
  | n_max_pulay                         :       10
  Calculation of forces was not defined in control.in. No forces will be calculated.
  Geometry relaxation not requested: no relaxation will be performed.
  No accuracy limit for integral partition fn. given. Defaulting to 0.1000E-14.
  No threshold value for u(r) in integrations given. Defaulting to 0.1000E-05.
  No accuracy for occupation numbers given. Defaulting to 0.1000E-07.
  No threshold value for occupation numbers given. Defaulting to 0.0000E+00.
  No accuracy for fermi level given. Defaulting to 0.1000E-19.
  Maximum # of iterations to find E_F not set. Defaulting to  200.
  Preferred method for the eigenvalue solver ('KS_method') not specified in 'control.in'.
  Calling blacs routine to test compilation state
  The best choice would be 'elpa', but your version of FHI-aims is compiled without scalapack support.
  Defaulting to 'lapack_fast' instead (serial solution, time will not improve with more CPUs).
  Will not use alltoall communication since running on < 1024 CPUs.
  Threshold for basis singularities not set.
  Default threshold for basis singularities: 0.1000E-04
  partition_type (choice of integration weights) for integrals was not specified.
  | Using a version of the partition function of Stratmann and coworkers ('stratmann_smoother').
  | At each grid point, the set of atoms used to build the partition table is smoothly restricted to
  | only those atoms whose free-atom density would be non-zero at that grid point.
  Partitioning for Hartree potential was not defined. Using partition_type for integrals.
  | Adjusted default value of keyword multip_moments_threshold to:       0.10000000E-11
  | This value may affect high angular momentum components of the Hartree potential in periodic systems.
  Spin handling was not defined in control.in. Defaulting to unpolarized case.
  Threshold for auxiliary basis singularities not set.
  Default threshold for auxiliary basis singularities: 0.1000E-04
  * Doing correlated calculations, so all empty single-particle states will be included.
  No q(lm)/r^(l+1) cutoff set for long-range Hartree potential.
  | Using default value of  0.100000E-09 .
  | Verify using the multipole_threshold keyword.
  Defaulting to new monopole extrapolation.
  Density update method: automatic selection selected.
  Default to 1D ("use_logsbt") integrations for auxiliary 2-center integrals.
  Default onset of logarithmic r-grid for SBT is-38.000000000000
  Default onset of logarithmic k-grid for SBT is-25.000000000000
  Default range of logarithmic r- and k-grid for SBT is 45.000000000000
  Default number of logarithmic r- and k-grid for SBT is 16384
------------------------------------------------------------


------------------------------------------------------------
          Reading geometry description geometry.in.
------------------------------------------------------------
  Input structure read successfully.
  The structure contains        6 atoms,  and a total of         24.000 electrons.

  Input geometry:
  | No unit cell requested.
  | Atomic structure:
  |       Atom                x [A]            y [A]            z [A]
  |    1: Species C         -0.294062         0.576964         0.000000
  |    2: Species O          0.272387         1.667715         0.000000
  |    3: Species N          0.316817        -0.618403         0.000000
  |    4: Species H         -0.240009        -1.452955         0.000000
  |    5: Species H          1.337343        -0.683701         0.000000
  |    6: Species H         -1.392475         0.510380         0.000000
  |
  | Closest distance between atoms is    1.003 AA.

  Structure-dependent array size parameters: 
  | Maximum number of distinct radial functions  :       21
  | Maximum number of basis functions            :       57
  | Number of Kohn-Sham states (occupied + empty):     6012
------------------------------------------------------------

------------------------------------------------------------
          Preparing all fixed parts of the calculation.
------------------------------------------------------------
  Determining machine precision:
    2.22507385850720138E-308
  Setting up grids for atomic and cluster calculations.

  Creating wave function, potential, and density for free atoms.

  Species: C

  List of occupied orbitals and eigenvalues:
    n    l              occ      energy [Ha]    energy [eV]
    1    0           2.0000       -10.042041      -273.2578
    2    0           2.0000        -0.504901       -13.7390
    2    1           2.0000        -0.194353        -5.2886


  Species: O

  List of occupied orbitals and eigenvalues:
    n    l              occ      energy [Ha]    energy [eV]
    1    0           2.0000       -18.898644      -514.2583
    2    0           2.0000        -0.878848       -23.9147
    2    1           4.0000        -0.332128        -9.0377


  Species: N

  List of occupied orbitals and eigenvalues:
    n    l              occ      energy [Ha]    energy [eV]
    1    0           2.0000       -14.129248      -384.4764
    2    0           2.0000        -0.681982       -18.5577
    2    1           3.0000        -0.260725        -7.0947


  Species: H

  List of occupied orbitals and eigenvalues:
    n    l              occ      energy [Ha]    energy [eV]
    1    0           1.0000        -0.238600        -6.4926

  Creating fixed part of basis set: Ionic, confined, hydrogenic.

  C                    Gaussian:

  List of cartesian Gaussian basis orbitals: 
    L    l
    0    0
    0    0
    0    0
    1    1
    1    1
    2    2


  O                    Gaussian:

  List of cartesian Gaussian basis orbitals: 
    L    l
    0    0
    0    0
    0    0
    1    1
    1    1
    2    2


  N                    Gaussian:

  List of cartesian Gaussian basis orbitals: 
    L    l
    0    0
    0    0
    0    0
    1    1
    1    1
    2    2


  H                    Gaussian:

  List of cartesian Gaussian basis orbitals: 
    L    l
    0    0
    0    0
    1    1


  Adding cutoff potential to free-atom effective potential.
  Creating atomic-like basis functions for current effective potential.
  Assembling full basis from fixed parts.
  | Species C : gaussian orbital   0 s accepted.
  | Species C : gaussian orbital   0 s accepted.
  | Species C : gaussian orbital   0 s accepted.
  | Species C : gaussian orbital   1 p accepted.
  | Species C : gaussian orbital   1 p accepted.
  | Species C : gaussian orbital   2 d accepted.
  | Species O : gaussian orbital   0 s accepted.
  | Species O : gaussian orbital   0 s accepted.
  | Species O : gaussian orbital   0 s accepted.
  | Species O : gaussian orbital   1 p accepted.
  | Species O : gaussian orbital   1 p accepted.
  | Species O : gaussian orbital   2 d accepted.
  | Species N : gaussian orbital   0 s accepted.
  | Species N : gaussian orbital   0 s accepted.
  | Species N : gaussian orbital   0 s accepted.
  | Species N : gaussian orbital   1 p accepted.
  | Species N : gaussian orbital   1 p accepted.
  | Species N : gaussian orbital   2 d accepted.
  | Species H : gaussian orbital   0 s accepted.
  | Species H : gaussian orbital   0 s accepted.
  | Species H : gaussian orbital   1 p accepted.

  * You requested     6012 Kohn-Sham states in the calculation,
  * but there are only       57 available basis states.
  * Reducing total number of  Kohn-Sham states to       57.


  Basis size parameters after reduction:
  | Total number of radial functions:       21
  | Total number of basis functions :       57

  Preparing densities etc. for the partition functions (integrals / Hartree potential).

  Preparations completed.
  max(cpu_time)          :      0.416 s.
  Wall clock time (cpu1) :      0.418 s.
------------------------------------------------------------

------------------------------------------------------------
          Begin self-consistency loop: Initialization.

          Date     :  20120920, Time     :  211511.858
------------------------------------------------------------

  Initializing index lists of integration centers etc. from given atomic structure:
  | Number of centers in hartree potential         :         6
  | Number of centers in hartree multipole         :         6
  | Number of centers in electron density summation:         6
  | Number of centers in basis integrals           :         6
  | Number of centers in integrals                 :         6
  Partitioning the integration grid into batches with parallel hashing+maxmin method.
  | Number of batches:     3497
  | Maximal batch size:     170
  | Minimal batch size:      64
  | Average batch size:      87.881
  | Standard deviation of batch sizes:      28.351

  Integration load balanced across     2 MPI tasks.
  Work distribution over tasks is as follows:
  Task     0 has     153713 integration points.
  Task     1 has     153607 integration points.
  Initializing partition tables, free-atom densities, potentials, etc.
  across the integration grid (initialize_grid_storage).
  | Net number of integration points:   307320
  | of which are non-zero points    :   258568
  Obtaining max. number of non-zero basis functions in each batch (get_n_compute_maxes).
  | Maximal number of non-zero basis functions:       57 in task     0
  | Maximal number of non-zero basis functions:       57 in task     1
  Selecting the method for density update.
  Loop over occupied states selected for charge density update.
  Integrating Hamiltonian matrix: batch-based integration.
  Time summed over all CPUs for integration: real work        2.191 s, elapsed        2.222 s
  Integrating overlap matrix.
  Time summed over all CPUs for integration: real work        0.857 s, elapsed        0.858 s

  Updating Kohn-Sham eigenvalues, eigenvectors, occupation numbers, and Fermi level.
  Solving generalized eigenproblem
  Updating Kohn-Sham eigenvalues and eigenfunctions.
  Transforming overlap matrix and checking for singularities.
  Overlap matrix is nonsingular:
  | Lowest eigenvalue:  0.854939E-02
  Solving real generalised eigenvalue problem by standard LAPACK (fast)
  Determining occupation numbers for Kohn-Sham eigenstates.
  | Chemical potential (Fermi level) in eV                 : -.72964337E+01
  | Error in electron count due to remaining E_F inaccuracy: 0.00000000E+00
  | Maximum occupation number of highest empty state:  0.00E+00

  Writing Kohn-Sham eigenvalues.

  State    Occupation    Eigenvalue [Ha]    Eigenvalue [eV]
      1       2.00000         -18.972623         -516.27135
      2       2.00000         -14.270202         -388.31196
      3       2.00000         -10.145399         -276.07035
      4       2.00000          -1.126343          -30.64936
      5       2.00000          -1.000650          -27.22906
      6       2.00000          -0.713693          -19.42056
      7       2.00000          -0.649011          -17.66050
      8       2.00000          -0.588374          -16.01046
      9       2.00000          -0.530426          -14.43363
     10       2.00000          -0.504602          -13.73092
     11       2.00000          -0.400254          -10.89145
     12       2.00000          -0.387332          -10.53983
     13       0.00000          -0.148946           -4.05304
     14       0.00000          -0.026584           -0.72339
     15       0.00000          -0.005543           -0.15083
     16       0.00000           0.048861            1.32958
     17       0.00000           0.117480            3.19679
     18       0.00000           0.175549            4.77693
     19       0.00000           0.328114            8.92842
     20       0.00000           0.354002            9.63288
     21       0.00000           0.355006            9.66020
     22       0.00000           0.388050           10.55939
     23       0.00000           0.431450           11.74034
     24       0.00000           0.544148           14.80701
     25       0.00000           0.579082           15.75763
     26       0.00000           0.608667           16.56268
     27       0.00000           0.642125           17.47310
     28       0.00000           0.701665           19.09327
     29       0.00000           0.788520           21.45672
     30       0.00000           0.879717           23.93833
     31       0.00000           0.888295           24.17174
     32       0.00000           0.927870           25.24862
     33       0.00000           1.026970           27.94528
     34       0.00000           1.036972           28.21743
     35       0.00000           1.152873           31.37126
     36       0.00000           1.285328           34.97556
     37       0.00000           1.317381           35.84776
     38       0.00000           1.438036           39.13096
     39       0.00000           1.501740           40.86443
     40       0.00000           1.502919           40.89651
     41       0.00000           1.549064           42.15218
     42       0.00000           1.551623           42.22181
     43       0.00000           1.616447           43.98576
     44       0.00000           1.871194           50.91779
     45       0.00000           1.942178           52.84936
     46       0.00000           1.991084           54.18015
     47       0.00000           2.067861           56.26936
     48       0.00000           2.111723           57.46292
     49       0.00000           2.230831           60.70399
     50       0.00000           2.335052           63.53999
     51       0.00000           2.450230           66.67415
     52       0.00000           2.469538           67.19954
     53       0.00000           2.651441           72.14939
     54       0.00000           2.808610           76.42616
     55       0.00000           2.871698           78.14288
     56       0.00000           3.156235           85.88552
     57       0.00000           3.202006           87.13102

  Highest occupied state (VBM) at    -10.53982982 eV
  | Occupation number:      2.00000000

  Lowest unoccupied state (CBM) at    -4.05303754 eV
  | Occupation number:      0.00000000

  Overall HOMO-LUMO gap:      6.48679228 eV.
  Calculating total energy contributions from superposition of free atom densities.

  Total energy components:
  | Sum of eigenvalues            :         -98.57781643 Ha       -2682.43886608 eV
  | XC energy correction          :         -21.41647046 Ha        -582.77181236 eV
  | XC potential correction       :          27.52524743 Ha         749.00009138 eV
  | Free-atom electrostatic energy:         -77.38034860 Ha       -2105.62641841 eV
  | Hartree energy correction     :          -0.00000000 Ha          -0.00000000 eV
  | Entropy correction            :          -0.00000000 Ha          -0.00000000 eV
  | ---------------------------
  | Total energy                  :        -169.84938806 Ha       -4621.83700546 eV
  | Total energy, T -> 0          :        -169.84938806 Ha       -4621.83700546 eV  <-- only rely on this value for actual (periodic) metals
  | Electronic free energy        :        -169.84938806 Ha       -4621.83700546 eV

  Derived energy quantities:
  | Kinetic energy                :         168.30929378 Ha        4579.92890791 eV
  | Electrostatic energy          :        -316.74221137 Ha       -8618.99410101 eV
  | Energy correction for multipole
  | error in Hartree potential    :           0.00000000 Ha           0.00000000 eV
  | Sum of eigenvalues per atom                           :        -447.07314435 eV
  | Total energy (T->0) per atom                          :        -770.30616758 eV  <-- only rely on this value for actual (periodic) metals
  | Electronic free energy per atom                       :        -770.30616758 eV
  Initialize hartree_potential_storage
  Max. number of atoms included in rho_multipole:            6

  End scf initialization - timings             :  max(cpu_time)    wall_clock(cpu1)
  | Time for scf. initialization               :        2.936 s           2.940 s
  | Boundary condition initialization          :        0.000 s           0.000 s
  | Integration                                :        1.540 s           1.540 s
  | Solution of K.-S. eqns.                    :        0.004 s           0.005 s
  | Grid partitioning                          :        0.400 s           0.403 s
  | Preloading free-atom quantities on grid    :        0.204 s           0.202 s
  | Free-atom superposition energy             :        0.308 s           0.307 s
  | Total energy evaluation                    :        0.000 s           0.000 s
------------------------------------------------------------

------------------------------------------------------------
          Begin self-consistency iteration #    1

  Date     :  20120920, Time     :  211514.799
------------------------------------------------------------
  Evaluating new KS density.
  Integration grid: deviation in total charge (<rho> - N_e) =  -8.881784E-14
  Pulay mixing of updated and previous charge densities.

  Evaluating partitioned Hartree potential by multipole expansion.
  | Analytical far-field extrapolation by fixed multipoles:
  | Hartree multipole sum: apparent total charge =  -0.575116E-07
  Summing up the Hartree potential.
  Time summed over all CPUs for potential: real work        2.262 s, elapsed        2.266 s
  | RMS charge density error from multipole expansion :   0.520098E-02

  Integrating Hamiltonian matrix: batch-based integration.
  Time summed over all CPUs for integration: real work        2.161 s, elapsed        2.173 s

  Updating Kohn-Sham eigenvalues, eigenvectors, occupation numbers, and Fermi level.
  Solving generalized eigenproblem
  Updating Kohn-Sham eigenvalues and eigenfunctions.
  Solving real generalised eigenvalue problem by standard LAPACK (fast)
  Determining occupation numbers for Kohn-Sham eigenstates.
  | Chemical potential (Fermi level) in eV                 : -.20043856E+01
  | Error in electron count due to remaining E_F inaccuracy: 0.00000000E+00
  | Maximum occupation number of highest empty state:  0.00E+00

  Writing Kohn-Sham eigenvalues.

  State    Occupation    Eigenvalue [Ha]    Eigenvalue [eV]
      1       2.00000         -18.535456         -504.37543
      2       2.00000         -13.909495         -378.49662
      3       2.00000         -10.006107         -272.28002
      4       2.00000          -0.905333          -24.63537
      5       2.00000          -0.812166          -22.10016
      6       2.00000          -0.573281          -15.59977
      7       2.00000          -0.500948          -13.63149
      8       2.00000          -0.434220          -11.81572
      9       2.00000          -0.341886           -9.30319
     10       2.00000          -0.309672           -8.42661
     11       2.00000          -0.195026           -5.30693
     12       2.00000          -0.157165           -4.27668
     13       0.00000           0.009846            0.26791
     14       0.00000           0.023662            0.64387
     15       0.00000           0.044312            1.20579
     16       0.00000           0.105819            2.87948
     17       0.00000           0.221062            6.01540
     18       0.00000           0.305762            8.32020
     19       0.00000           0.416430           11.33164
     20       0.00000           0.427821           11.64162
     21       0.00000           0.439139           11.94959
     22       0.00000           0.450864           12.26863
     23       0.00000           0.585900           15.94315
     24       0.00000           0.635516           17.29327
     25       0.00000           0.702016           19.10282
     26       0.00000           0.708318           19.27431
     27       0.00000           0.750114           20.41165
     28       0.00000           0.849372           23.11260
     29       0.00000           0.912206           24.82238
     30       0.00000           1.023713           27.85664
     31       0.00000           1.041623           28.34399
     32       0.00000           1.050620           28.58883
     33       0.00000           1.128302           30.70265
     34       0.00000           1.136870           30.93579
     35       0.00000           1.278877           34.80001
     36       0.00000           1.386836           37.73772
     37       0.00000           1.422059           38.69619
     38       0.00000           1.513699           41.18985
     39       0.00000           1.567186           42.64530
     40       0.00000           1.624083           44.19354
     41       0.00000           1.624586           44.20725
     42       0.00000           1.704613           46.38488
     43       0.00000           1.713503           46.62680
     44       0.00000           2.003062           54.50608
     45       0.00000           2.040923           55.53634
     46       0.00000           2.145249           58.37520
     47       0.00000           2.202333           59.92853
     48       0.00000           2.225284           60.55306
     49       0.00000           2.369685           64.48240
     50       0.00000           2.493390           67.84861
     51       0.00000           2.671139           72.68540
     52       0.00000           2.685409           73.07369
     53       0.00000           2.795797           76.07752
     54       0.00000           3.036037           82.61478
     55       0.00000           3.038509           82.68205
     56       0.00000           3.392049           92.30235
     57       0.00000           3.413524           92.88672

  Highest occupied state (VBM) at     -4.27668486 eV
  | Occupation number:      2.00000000

  Lowest unoccupied state (CBM) at     0.26791374 eV
  | Occupation number:      0.00000000

  Overall HOMO-LUMO gap:      4.54459860 eV.

  Total energy components:
  | Sum of eigenvalues            :         -93.36151134 Ha       -2540.49598260 eV
  | XC energy correction          :         -21.96069849 Ha        -597.58101057 eV
  | XC potential correction       :          28.23589175 Ha         768.33770715 eV
  | Free-atom electrostatic energy:         -77.38034860 Ha       -2105.62641841 eV
  | Hartree energy correction     :          -5.28320889 Ha        -143.76342842 eV
  | Entropy correction            :          -0.00000000 Ha          -0.00000000 eV
  | ---------------------------
  | Total energy                  :        -169.74987557 Ha       -4619.12913286 eV
  | Total energy, T -> 0          :        -169.74987557 Ha       -4619.12913286 eV  <-- only rely on this value for actual (periodic) metals
  | Electronic free energy        :        -169.74987557 Ha       -4619.12913286 eV

  Derived energy quantities:
  | Kinetic energy                :         170.50695040 Ha        4639.73018720 eV
  | Electrostatic energy          :        -318.29612747 Ha       -8661.27830948 eV
  | Energy correction for multipole
  | error in Hartree potential    :          -0.01009614 Ha          -0.27472982 eV
  | Sum of eigenvalues per atom                           :        -423.41599710 eV
  | Total energy (T->0) per atom                          :        -769.85485548 eV  <-- only rely on this value for actual (periodic) metals
  | Electronic free energy per atom                       :        -769.85485548 eV

  Self-consistency convergence accuracy:
  | Change of charge density      : 0.4093E+00
  | Change of sum of eigenvalues  : 0.1419E+03 eV
  | Change of total energy        : 0.2708E+01 eV

  End self-consistency iteration #     1       :  max(cpu_time)    wall_clock(cpu1)
  | Time for this iteration                    :        3.136 s           3.140 s
  | Charge density update                      :        0.884 s           0.883 s
  | Density mixing                             :        0.016 s           0.013 s
  | Hartree multipole update                   :        0.020 s           0.020 s
  | Hartree multipole summation                :        1.132 s           1.134 s
  | Integration                                :        1.088 s           1.087 s
  | Solution of K.-S. eqns.                    :        0.004 s           0.001 s
  | Total energy evaluation                    :        0.000 s           0.001 s
------------------------------------------------------------

------------------------------------------------------------
          Begin self-consistency iteration #    2

  Date     :  20120920, Time     :  211517.939
------------------------------------------------------------
  Evaluating new KS density.
  Integration grid: deviation in total charge (<rho> - N_e) =  -3.552714E-15
  Pulay mixing of updated and previous charge densities.

  Evaluating partitioned Hartree potential by multipole expansion.
  | Analytical far-field extrapolation by fixed multipoles:
  | Hartree multipole sum: apparent total charge =   0.640123E-08
  Summing up the Hartree potential.
  Time summed over all CPUs for potential: real work        2.272 s, elapsed        2.272 s
  | RMS charge density error from multipole expansion :   0.582863E-02

  Integrating Hamiltonian matrix: batch-based integration.
  Time summed over all CPUs for integration: real work        2.162 s, elapsed        2.162 s

  Updating Kohn-Sham eigenvalues, eigenvectors, occupation numbers, and Fermi level.
  Solving generalized eigenproblem
  Updating Kohn-Sham eigenvalues and eigenfunctions.
  Solving real generalised eigenvalue problem by standard LAPACK (fast)
  Determining occupation numbers for Kohn-Sham eigenstates.
  | Chemical potential (Fermi level) in eV                 : -.32485060E+01
  | Error in electron count due to remaining E_F inaccuracy: 0.00000000E+00
  | Maximum occupation number of highest empty state:  0.00E+00

  Highest occupied state (VBM) at     -6.18393378 eV
  | Occupation number:      2.00000000

  Lowest unoccupied state (CBM) at    -0.31307830 eV
  | Occupation number:      0.00000000

  Overall HOMO-LUMO gap:      5.87085547 eV.

  Total energy components:
  | Sum of eigenvalues            :         -94.40122942 Ha       -2568.78815096 eV
  | XC energy correction          :         -21.83204140 Ha        -594.08007303 eV
  | XC potential correction       :          28.06707387 Ha         763.74393880 eV
  | Free-atom electrostatic energy:         -77.38034860 Ha       -2105.62641841 eV
  | Hartree energy correction     :          -4.17008217 Ha        -113.47370939 eV
  | Entropy correction            :          -0.00000000 Ha          -0.00000000 eV
  | ---------------------------
  | Total energy                  :        -169.71662772 Ha       -4618.22441298 eV
  | Total energy, T -> 0          :        -169.71662772 Ha       -4618.22441298 eV  <-- only rely on this value for actual (periodic) metals
  | Electronic free energy        :        -169.71662772 Ha       -4618.22441298 eV

  Derived energy quantities:
  | Kinetic energy                :         169.32755984 Ha        4607.63733737 eV
  | Electrostatic energy          :        -317.21214616 Ha       -8631.78167732 eV
  | Energy correction for multipole
  | error in Hartree potential    :          -0.01056065 Ha          -0.28736999 eV
  | Sum of eigenvalues per atom                           :        -428.13135849 eV
  | Total energy (T->0) per atom                          :        -769.70406883 eV  <-- only rely on this value for actual (periodic) metals
  | Electronic free energy per atom                       :        -769.70406883 eV

  Self-consistency convergence accuracy:
  | Change of charge density      : 0.3172E+00
  | Change of sum of eigenvalues  : -.2829E+02 eV
  | Change of total energy        : 0.9047E+00 eV

  End self-consistency iteration #     2       :  max(cpu_time)    wall_clock(cpu1)
  | Time for this iteration                    :        3.120 s           3.123 s
  | Charge density update                      :        0.864 s           0.865 s
  | Density mixing                             :        0.020 s           0.018 s
  | Hartree multipole update                   :        0.020 s           0.020 s
  | Hartree multipole summation                :        1.136 s           1.137 s
  | Integration                                :        1.080 s           1.081 s
  | Solution of K.-S. eqns.                    :        0.004 s           0.001 s
  | Total energy evaluation                    :        0.000 s           0.000 s
------------------------------------------------------------

------------------------------------------------------------
          Begin self-consistency iteration #    3

  Date     :  20120920, Time     :  211521.062
------------------------------------------------------------
  Evaluating new KS density.
  Integration grid: deviation in total charge (<rho> - N_e) =   3.552714E-15
  Pulay mixing of updated and previous charge densities.

  Evaluating partitioned Hartree potential by multipole expansion.
  | Analytical far-field extrapolation by fixed multipoles:
  | Hartree multipole sum: apparent total charge =   0.534846E-07
  Summing up the Hartree potential.
  Time summed over all CPUs for potential: real work        2.279 s, elapsed        2.283 s
  | RMS charge density error from multipole expansion :   0.682533E-02

  Integrating Hamiltonian matrix: batch-based integration.
  Time summed over all CPUs for integration: real work        2.167 s, elapsed        2.193 s

  Updating Kohn-Sham eigenvalues, eigenvectors, occupation numbers, and Fermi level.
  Solving generalized eigenproblem
  Updating Kohn-Sham eigenvalues and eigenfunctions.
  Solving real generalised eigenvalue problem by standard LAPACK (fast)
  Determining occupation numbers for Kohn-Sham eigenstates.
  | Chemical potential (Fermi level) in eV                 : -.26437769E+01
  | Error in electron count due to remaining E_F inaccuracy: 0.00000000E+00
  | Maximum occupation number of highest empty state:  0.00E+00

  Highest occupied state (VBM) at     -5.10881940 eV
  | Occupation number:      2.00000000

  Lowest unoccupied state (CBM) at    -0.17873444 eV
  | Occupation number:      0.00000000

  Overall HOMO-LUMO gap:      4.93008496 eV.

  Total energy components:
  | Sum of eigenvalues            :         -94.32743237 Ha       -2566.78003115 eV
  | XC energy correction          :         -21.85194280 Ha        -594.62161749 eV
  | XC potential correction       :          28.09276605 Ha         764.44305873 eV
  | Free-atom electrostatic energy:         -77.38034860 Ha       -2105.62641841 eV
  | Hartree energy correction     :          -4.24701207 Ha        -115.56707842 eV
  | Entropy correction            :          -0.00000000 Ha          -0.00000000 eV
  | ---------------------------
  | Total energy                  :        -169.71396978 Ha       -4618.15208674 eV
  | Total energy, T -> 0          :        -169.71396978 Ha       -4618.15208674 eV  <-- only rely on this value for actual (periodic) metals
  | Electronic free energy        :        -169.71396978 Ha       -4618.15208674 eV

  Derived energy quantities:
  | Kinetic energy                :         169.03559509 Ha        4599.69257226 eV
  | Electrostatic energy          :        -316.89762208 Ha       -8623.22304151 eV
  | Energy correction for multipole
  | error in Hartree potential    :          -0.01159096 Ha          -0.31540599 eV
  | Sum of eigenvalues per atom                           :        -427.79667186 eV
  | Total energy (T->0) per atom                          :        -769.69201446 eV  <-- only rely on this value for actual (periodic) metals
  | Electronic free energy per atom                       :        -769.69201446 eV

  Self-consistency convergence accuracy:
  | Change of charge density      : 0.1118E+00
  | Change of sum of eigenvalues  : 0.2008E+01 eV
  | Change of total energy        : 0.7233E-01 eV

  End self-consistency iteration #     3       :  max(cpu_time)    wall_clock(cpu1)
  | Time for this iteration                    :        3.168 s           3.170 s
  | Charge density update                      :        0.884 s           0.885 s
  | Density mixing                             :        0.024 s           0.024 s
  | Hartree multipole update                   :        0.020 s           0.020 s
  | Hartree multipole summation                :        1.140 s           1.143 s
  | Integration                                :        1.096 s           1.096 s
  | Solution of K.-S. eqns.                    :        0.000 s           0.001 s
  | Total energy evaluation                    :        0.000 s           0.000 s
------------------------------------------------------------

------------------------------------------------------------
          Begin self-consistency iteration #    4

  Date     :  20120920, Time     :  211524.232
------------------------------------------------------------
  Evaluating new KS density.
  Integration grid: deviation in total charge (<rho> - N_e) =  -5.684342E-14
  Pulay mixing of updated and previous charge densities.

  Evaluating partitioned Hartree potential by multipole expansion.
  | Analytical far-field extrapolation by fixed multipoles:
  | Hartree multipole sum: apparent total charge =   0.919351E-07
  Summing up the Hartree potential.
  Time summed over all CPUs for potential: real work        2.278 s, elapsed        2.285 s
  | RMS charge density error from multipole expansion :   0.754992E-02

  Integrating Hamiltonian matrix: batch-based integration.
  Time summed over all CPUs for integration: real work        2.179 s, elapsed        2.202 s

  Updating Kohn-Sham eigenvalues, eigenvectors, occupation numbers, and Fermi level.
  Solving generalized eigenproblem
  Updating Kohn-Sham eigenvalues and eigenfunctions.
  Solving real generalised eigenvalue problem by standard LAPACK (fast)
  Determining occupation numbers for Kohn-Sham eigenstates.
  | Chemical potential (Fermi level) in eV                 : -.27285599E+01
  | Error in electron count due to remaining E_F inaccuracy: 0.00000000E+00
  | Maximum occupation number of highest empty state:  0.00E+00

  Highest occupied state (VBM) at     -5.33125277 eV
  | Occupation number:      2.00000000

  Lowest unoccupied state (CBM) at    -0.12586695 eV
  | Occupation number:      0.00000000

  Overall HOMO-LUMO gap:      5.20538582 eV.

  Total energy components:
  | Sum of eigenvalues            :         -94.21833211 Ha       -2563.81126193 eV
  | XC energy correction          :         -21.86275300 Ha        -594.91577805 eV
  | XC potential correction       :          28.10680433 Ha         764.82505978 eV
  | Free-atom electrostatic energy:         -77.38034860 Ha       -2105.62641841 eV
  | Hartree energy correction     :          -4.35527303 Ha        -118.51300902 eV
  | Entropy correction            :          -0.00000000 Ha          -0.00000000 eV
  | ---------------------------
  | Total energy                  :        -169.70990240 Ha       -4618.04140763 eV
  | Total energy, T -> 0          :        -169.70990240 Ha       -4618.04140763 eV  <-- only rely on this value for actual (periodic) metals
  | Electronic free energy        :        -169.70990240 Ha       -4618.04140763 eV

  Derived energy quantities:
  | Kinetic energy                :         168.82735467 Ha        4594.02606199 eV
  | Electrostatic energy          :        -316.67450407 Ha       -8617.15169157 eV
  | Energy correction for multipole
  | error in Hartree potential    :          -0.01264016 Ha          -0.34395624 eV
  | Sum of eigenvalues per atom                           :        -427.30187699 eV
  | Total energy (T->0) per atom                          :        -769.67356794 eV  <-- only rely on this value for actual (periodic) metals
  | Electronic free energy per atom                       :        -769.67356794 eV

  Self-consistency convergence accuracy:
  | Change of charge density      : 0.9536E-01
  | Change of sum of eigenvalues  : 0.2969E+01 eV
  | Change of total energy        : 0.1107E+00 eV

  End self-consistency iteration #     4       :  max(cpu_time)    wall_clock(cpu1)
  | Time for this iteration                    :        3.184 s           3.186 s
  | Charge density update                      :        0.888 s           0.889 s
  | Density mixing                             :        0.032 s           0.031 s
  | Hartree multipole update                   :        0.020 s           0.020 s
  | Hartree multipole summation                :        1.144 s           1.143 s
  | Integration                                :        1.100 s           1.101 s
  | Solution of K.-S. eqns.                    :        0.004 s           0.001 s
  | Total energy evaluation                    :        0.000 s           0.000 s
------------------------------------------------------------

------------------------------------------------------------
          Begin self-consistency iteration #    5

  Date     :  20120920, Time     :  211527.419
------------------------------------------------------------
  Evaluating new KS density.
  Integration grid: deviation in total charge (<rho> - N_e) =  -1.314504E-13
  Pulay mixing of updated and previous charge densities.

  Evaluating partitioned Hartree potential by multipole expansion.
  | Analytical far-field extrapolation by fixed multipoles:
  | Hartree multipole sum: apparent total charge =   0.113880E-06
  Summing up the Hartree potential.
  Time summed over all CPUs for potential: real work        2.273 s, elapsed        2.274 s
  | RMS charge density error from multipole expansion :   0.760199E-02

  Integrating Hamiltonian matrix: batch-based integration.
  Time summed over all CPUs for integration: real work        2.186 s, elapsed        2.209 s

  Updating Kohn-Sham eigenvalues, eigenvectors, occupation numbers, and Fermi level.
  Solving generalized eigenproblem
  Updating Kohn-Sham eigenvalues and eigenfunctions.
  Solving real generalised eigenvalue problem by standard LAPACK (fast)
  Determining occupation numbers for Kohn-Sham eigenstates.
  | Chemical potential (Fermi level) in eV                 : -.26932673E+01
  | Error in electron count due to remaining E_F inaccuracy: 0.00000000E+00
  | Maximum occupation number of highest empty state:  0.00E+00

  Highest occupied state (VBM) at     -5.31073147 eV
  | Occupation number:      2.00000000

  Lowest unoccupied state (CBM) at    -0.07580304 eV
  | Occupation number:      0.00000000

  Overall HOMO-LUMO gap:      5.23492843 eV.

  Total energy components:
  | Sum of eigenvalues            :         -94.20766041 Ha       -2563.52087024 eV
  | XC energy correction          :         -21.86114282 Ha        -594.87196289 eV
  | XC potential correction       :          28.10473978 Ha         764.76888042 eV
  | Free-atom electrostatic energy:         -77.38034860 Ha       -2105.62641841 eV
  | Hartree energy correction     :          -4.36538158 Ha        -118.78807658 eV
  | Entropy correction            :          -0.00000000 Ha          -0.00000000 eV
  | ---------------------------
  | Total energy                  :        -169.70979362 Ha       -4618.03844770 eV
  | Total energy, T -> 0          :        -169.70979362 Ha       -4618.03844770 eV  <-- only rely on this value for actual (periodic) metals
  | Electronic free energy        :        -169.70979362 Ha       -4618.03844770 eV

  Derived energy quantities:
  | Kinetic energy                :         168.80006328 Ha        4593.28342544 eV
  | Electrostatic energy          :        -316.64871408 Ha       -8616.44991025 eV
  | Energy correction for multipole
  | error in Hartree potential    :          -0.01269463 Ha          -0.34543853 eV
  | Sum of eigenvalues per atom                           :        -427.25347837 eV
  | Total energy (T->0) per atom                          :        -769.67307462 eV  <-- only rely on this value for actual (periodic) metals
  | Electronic free energy per atom                       :        -769.67307462 eV

  Self-consistency convergence accuracy:
  | Change of charge density      : 0.1315E-01
  | Change of sum of eigenvalues  : 0.2904E+00 eV
  | Change of total energy        : 0.2960E-02 eV

  End self-consistency iteration #     5       :  max(cpu_time)    wall_clock(cpu1)
  | Time for this iteration                    :        3.180 s           3.182 s
  | Charge density update                      :        0.884 s           0.883 s
  | Density mixing                             :        0.036 s           0.035 s
  | Hartree multipole update                   :        0.020 s           0.020 s
  | Hartree multipole summation                :        1.140 s           1.138 s
  | Integration                                :        1.104 s           1.104 s
  | Solution of K.-S. eqns.                    :        0.000 s           0.001 s
  | Total energy evaluation                    :        0.000 s           0.000 s
------------------------------------------------------------

------------------------------------------------------------
          Begin self-consistency iteration #    6

  Date     :  20120920, Time     :  211530.601
------------------------------------------------------------
  Evaluating new KS density.
  Integration grid: deviation in total charge (<rho> - N_e) =  -5.684342E-14
  Pulay mixing of updated and previous charge densities.

  Evaluating partitioned Hartree potential by multipole expansion.
  | Analytical far-field extrapolation by fixed multipoles:
  | Hartree multipole sum: apparent total charge =   0.114436E-06
  Summing up the Hartree potential.
  Time summed over all CPUs for potential: real work        2.266 s, elapsed        2.268 s
  | RMS charge density error from multipole expansion :   0.762702E-02

  Integrating Hamiltonian matrix: batch-based integration.
  Time summed over all CPUs for integration: real work        2.171 s, elapsed        2.194 s

  Updating Kohn-Sham eigenvalues, eigenvectors, occupation numbers, and Fermi level.
  Solving generalized eigenproblem
  Updating Kohn-Sham eigenvalues and eigenfunctions.
  Solving real generalised eigenvalue problem by standard LAPACK (fast)
  Determining occupation numbers for Kohn-Sham eigenstates.
  | Chemical potential (Fermi level) in eV                 : -.27176600E+01
  | Error in electron count due to remaining E_F inaccuracy: 0.00000000E+00
  | Maximum occupation number of highest empty state:  0.00E+00

  Highest occupied state (VBM) at     -5.33928020 eV
  | Occupation number:      2.00000000

  Lowest unoccupied state (CBM) at    -0.09603982 eV
  | Occupation number:      0.00000000

  Overall HOMO-LUMO gap:      5.24324038 eV.

  Total energy components:
  | Sum of eigenvalues            :         -94.22677408 Ha       -2564.04097964 eV
  | XC energy correction          :         -21.85913742 Ha        -594.81739317 eV
  | XC potential correction       :          28.10212929 Ha         764.69784524 eV
  | Free-atom electrostatic energy:         -77.38034860 Ha       -2105.62641841 eV
  | Hartree energy correction     :          -4.34565948 Ha        -118.25141111 eV
  | Entropy correction            :          -0.00000000 Ha          -0.00000000 eV
  | ---------------------------
  | Total energy                  :        -169.70979029 Ha       -4618.03835708 eV
  | Total energy, T -> 0          :        -169.70979029 Ha       -4618.03835708 eV  <-- only rely on this value for actual (periodic) metals
  | Electronic free energy        :        -169.70979029 Ha       -4618.03835708 eV

  Derived energy quantities:
  | Kinetic energy                :         168.78326048 Ha        4592.82619803 eV
  | Electrostatic energy          :        -316.63391335 Ha       -8616.04716193 eV
  | Energy correction for multipole
  | error in Hartree potential    :          -0.01270023 Ha          -0.34559085 eV
  | Sum of eigenvalues per atom                           :        -427.34016327 eV
  | Total energy (T->0) per atom                          :        -769.67305951 eV  <-- only rely on this value for actual (periodic) metals
  | Electronic free energy per atom                       :        -769.67305951 eV

  Self-consistency convergence accuracy:
  | Change of charge density      : 0.2796E-02
  | Change of sum of eigenvalues  : -.5201E+00 eV
  | Change of total energy        : 0.9062E-04 eV

  End self-consistency iteration #     6       :  max(cpu_time)    wall_clock(cpu1)
  | Time for this iteration                    :        3.180 s           3.183 s
  | Charge density update                      :        0.888 s           0.887 s
  | Density mixing                             :        0.044 s           0.042 s
  | Hartree multipole update                   :        0.020 s           0.020 s
  | Hartree multipole summation                :        1.136 s           1.135 s
  | Integration                                :        1.096 s           1.097 s
  | Solution of K.-S. eqns.                    :        0.004 s           0.001 s
  | Total energy evaluation                    :        0.000 s           0.001 s
------------------------------------------------------------

------------------------------------------------------------
          Begin self-consistency iteration #    7

  Date     :  20120920, Time     :  211533.784
------------------------------------------------------------
  Evaluating new KS density.
  Integration grid: deviation in total charge (<rho> - N_e) =   3.552714E-15
  Pulay mixing of updated and previous charge densities.

  Evaluating partitioned Hartree potential by multipole expansion.
  | Analytical far-field extrapolation by fixed multipoles:
  | Hartree multipole sum: apparent total charge =   0.114557E-06
  Summing up the Hartree potential.
  Time summed over all CPUs for potential: real work        2.279 s, elapsed        2.285 s
  | RMS charge density error from multipole expansion :   0.763500E-02

  Integrating Hamiltonian matrix: batch-based integration.
  Time summed over all CPUs for integration: real work        2.169 s, elapsed        2.180 s

  Updating Kohn-Sham eigenvalues, eigenvectors, occupation numbers, and Fermi level.
  Solving generalized eigenproblem
  Updating Kohn-Sham eigenvalues and eigenfunctions.
  Solving real generalised eigenvalue problem by standard LAPACK (fast)
  Determining occupation numbers for Kohn-Sham eigenstates.
  | Chemical potential (Fermi level) in eV                 : -.27125729E+01
  | Error in electron count due to remaining E_F inaccuracy: 0.00000000E+00
  | Maximum occupation number of highest empty state:  0.00E+00

  Highest occupied state (VBM) at     -5.33328514 eV
  | Occupation number:      2.00000000

  Lowest unoccupied state (CBM) at    -0.09186056 eV
  | Occupation number:      0.00000000

  Overall HOMO-LUMO gap:      5.24142458 eV.

  Total energy components:
  | Sum of eigenvalues            :         -94.22320774 Ha       -2563.94393468 eV
  | XC energy correction          :         -21.85945515 Ha        -594.82603911 eV
  | XC potential correction       :          28.10254811 Ha         764.70924207 eV
  | Free-atom electrostatic energy:         -77.38034860 Ha       -2105.62641841 eV
  | Hartree energy correction     :          -4.34932677 Ha        -118.35120310 eV
  | Entropy correction            :          -0.00000000 Ha          -0.00000000 eV
  | ---------------------------
  | Total energy                  :        -169.70979015 Ha       -4618.03835323 eV
  | Total energy, T -> 0          :        -169.70979015 Ha       -4618.03835323 eV  <-- only rely on this value for actual (periodic) metals
  | Electronic free energy        :        -169.70979015 Ha       -4618.03835323 eV

  Derived energy quantities:
  | Kinetic energy                :         168.78419893 Ha        4592.85173468 eV
  | Electrostatic energy          :        -316.63453393 Ha       -8616.06404880 eV
  | Energy correction for multipole
  | error in Hartree potential    :          -0.01270949 Ha          -0.34584294 eV
  | Sum of eigenvalues per atom                           :        -427.32398911 eV
  | Total energy (T->0) per atom                          :        -769.67305887 eV  <-- only rely on this value for actual (periodic) metals
  | Electronic free energy per atom                       :        -769.67305887 eV

  Self-consistency convergence accuracy:
  | Change of charge density      : 0.7054E-03
  | Change of sum of eigenvalues  : 0.9704E-01 eV
  | Change of total energy        : 0.3850E-05 eV

  End self-consistency iteration #     7       :  max(cpu_time)    wall_clock(cpu1)
  | Time for this iteration                    :        3.184 s           3.187 s
  | Charge density update                      :        0.884 s           0.885 s
  | Density mixing                             :        0.048 s           0.047 s
  | Hartree multipole update                   :        0.016 s           0.020 s
  | Hartree multipole summation                :        1.144 s           1.143 s
  | Integration                                :        1.088 s           1.090 s
  | Solution of K.-S. eqns.                    :        0.004 s           0.001 s
  | Total energy evaluation                    :        0.000 s           0.000 s
------------------------------------------------------------

------------------------------------------------------------
          Begin self-consistency iteration #    8

  Date     :  20120920, Time     :  211536.972
------------------------------------------------------------
  Evaluating new KS density.
  Integration grid: deviation in total charge (<rho> - N_e) =  -6.750156E-14
  Pulay mixing of updated and previous charge densities.

  Evaluating partitioned Hartree potential by multipole expansion.
  | Analytical far-field extrapolation by fixed multipoles:
  | Hartree multipole sum: apparent total charge =   0.114579E-06
  Summing up the Hartree potential.
  Time summed over all CPUs for potential: real work        2.270 s, elapsed        2.273 s
  | RMS charge density error from multipole expansion :   0.763620E-02

  Integrating Hamiltonian matrix: batch-based integration.
  Time summed over all CPUs for integration: real work        2.186 s, elapsed        2.188 s

  Updating Kohn-Sham eigenvalues, eigenvectors, occupation numbers, and Fermi level.
  Solving generalized eigenproblem
  Updating Kohn-Sham eigenvalues and eigenfunctions.
  Solving real generalised eigenvalue problem by standard LAPACK (fast)
  Determining occupation numbers for Kohn-Sham eigenstates.
  | Chemical potential (Fermi level) in eV                 : -.27128976E+01
[...]
  ------------------------------------ 
  X Energy            :        -21.057936443 Ha           -573.015605327 eV
  C Energy GGA        :         -0.801493900 Ha            -21.809758685 eV
  Total XC Energy     :        -21.859430343 Ha           -594.825364012 eV
  LDA X and C from self-consistent density 
  X Energy LDA        :        -19.109077861 Ha           -519.984465107 eV
  C Energy LDA        :         -1.583708561 Ha            -43.094902583 eV
  ------------------------------------ 
  End decomposition of the XC Energy 
  ------------------------------------ 

 --------------------------------------------
  Constructing auxiliary basis (full product) ...

  Product basis:
  | charge radius: extent of product basis function
  | field radius: extent of its Coulomb potential
  | Species   l  charge radius    field radius  multipol momen
  |    C      0     2.625908 A      2.625908 A   -7.8270E-17 a.u.
  |    C      0     2.791423 A      2.791423 A   -3.8359E-17 a.u.
  |    C      1     2.791423 A      2.791423 A   -1.2664E-16 a.u.
  |    C      0     3.436235 A      3.436235 A    9.5446E-17 a.u.
  |    C      1     3.521286 A      3.521286 A    6.2208E-17 a.u.
  |    C      0     3.564598 A      3.564598 A   -1.3615E-16 a.u.
  |    C      2     3.608443 A      3.608443 A    1.6581E-16 a.u.
  |    C      3     3.697756 A      3.697756 A   -1.6904E-15 a.u.
  |    C      3     3.743239 A      3.743239 A    1.0194E-15 a.u.
  |    C      0     5.143845 A      5.143845 A   -8.7988E-17 a.u.
  |    C      1     5.271162 A      5.271162 A   -2.0416E-16 a.u.
  |    C      1     5.335997 A      5.335997 A   -2.5985E-16 a.u.
  |    C      2     5.401630 A      5.401630 A   -3.5333E-16 a.u.
  |    C      2     5.401630 A      5.401630 A   -9.2506E-16 a.u.
  |    C      2     5.401630 A      5.401630 A    9.4743E-16 a.u.
  |    C      4     3.040818 A    2.6718E+02 A      2.611074 a.u.
  |    C      3     3.789281 A    1.4432E+03 A      4.402197 a.u.
  |    C      2     5.535327 A    1.9029E+04 A      3.700382 a.u.
  |    C      1     5.335997 A    2.0643E+06 A      1.210968 a.u.
  |    C      0     5.081344 A    3.4128E+12 A      0.513216 a.u.
  |    O      0     1.898511 A      1.898511 A    8.6632E-17 a.u.
  |    O      1     2.018177 A      2.018177 A   -2.0158E-17 a.u.
  |    O      0     2.043000 A      2.043000 A   -5.2036E-17 a.u.
  |    O      0     2.577176 A      2.577176 A    8.1757E-17 a.u.
  |    O      1     2.577176 A      2.577176 A    1.0505E-17 a.u.
  |    O      3     2.577176 A      2.577176 A    1.5257E-16 a.u.
  |    O      3     2.608875 A      2.608875 A    8.9488E-18 a.u.
  |    O      2     2.640965 A      2.640965 A   -1.3057E-17 a.u.
  |    O      0     3.764702 A      3.764702 A    5.7509E-17 a.u.
  |    O      1     3.905335 A      3.905335 A   -2.1380E-16 a.u.
  |    O      1     3.905335 A      3.905335 A   -1.6749E-17 a.u.
  |    O      2     4.001998 A      4.001998 A   -5.1479E-16 a.u.
  |    O      2     4.051222 A      4.051222 A   -7.3859E-16 a.u.
  |    O      4     2.093567 A    1.8915E+02 A      0.464268 a.u.
  |    O      3     2.640965 A    1.0378E+03 A      1.177223 a.u.
  |    O      2     4.101052 A    1.4442E+04 A      1.617496 a.u.
  |    O      1     3.953371 A    1.5995E+06 A      0.727023 a.u.
  |    O      0     3.718959 A    2.8977E+12 A      0.435758 a.u.
  |    N      0     2.196414 A      2.196414 A    1.3231E-16 a.u.
  |    N      1     2.334858 A      2.334858 A   -2.8553E-17 a.u.
  |    N      0     2.363576 A      2.363576 A   -1.3450E-16 a.u.
  |    N      0     2.874204 A      2.874204 A   -2.6981E-17 a.u.
  |    N      1     2.945344 A      2.945344 A    4.3036E-17 a.u.
  |    N      0     2.981572 A      2.981572 A    1.0098E-17 a.u.
  |    N      2     2.981572 A      2.981572 A    6.2740E-17 a.u.
  |    N      3     3.055370 A      3.055370 A   -3.3322E-16 a.u.
  |    N      3     3.092951 A      3.092951 A   -7.0212E-16 a.u.
  |    N      0     4.355438 A      4.355438 A   -8.4330E-17 a.u.
  |    N      1     4.409010 A      4.409010 A   -2.8042E-16 a.u.
  |    N      1     4.463241 A      4.463241 A   -8.8138E-17 a.u.
  |    N      2     4.518138 A      4.518138 A    1.5291E-16 a.u.
  |    N      2     4.518138 A      4.518138 A    2.7791E-16 a.u.
  |    N      2     4.518138 A      4.518138 A   -2.1117E-16 a.u.
  |    N      4     2.512557 A    2.2360E+02 A      1.071854 a.u.
  |    N      3     3.130994 A    1.2152E+03 A      2.212646 a.u.
  |    N      2     4.629968 A    1.6294E+04 A      2.323294 a.u.
  |    N      1     4.518138 A    1.7953E+06 A      0.915913 a.u.
  |    N      0     4.302517 A    3.1270E+12 A      0.470243 a.u.
  |    H      1     3.215356 A      3.215356 A    4.6346E-17 a.u.
  |    H      0     3.815562 A      3.815562 A    1.8667E-16 a.u.
  |    H      0     5.781930 A      5.781930 A    2.0489E-16 a.u.
  |    H      2     2.517934 A    8.6084E+03 A      0.342576 a.u.
  |    H      1     3.254905 A    1.2873E+06 A      0.470947 a.u.
  |    H      0     5.711676 A    3.4615E+12 A      0.520541 a.u.

  | Shrink_full_auxil_basis : there are       64  radial auxiliary wave functions
                            accepted and      49 rejected.
  | Shrink_full_auxil_basis : there are totally     264 partial auxiliary wave functions.

  | Number of product basis functions per thread :   132
  | Minimal requirement for computer memories :           0.004 Gbs

  Basis pair condensation :      1653  -->       1653

 ----------------------------------------------------
  Integrating the 3-basis-function Coulomb matrix ...
  | i_atom:            1
  | i_atom:            2
  | i_atom:            3
  | i_atom:            4
  | i_atom:            5
  | i_atom:            6
  Integrating the Coulomb interaction matrix for auxiliary basis functions (by atoms)

  SBT integration errors (all should be 'small'):
  large logFT aliasing -> increase N/lnrange
  large SBT aliasing -> decrease lnk0 & increase lnk0+lnrange
  large SBT ringing -> decrease lnr0 & increase lnr0+lnrange
  |            El't  L: logFT-al.   small-k   large-k   small-r   large-r
  | Errors for    C  0:  2.04E-16  4.87E-46  9.49-105  5.63E-48  0.00E+00
  | Errors for    C  0:  1.09E-15  2.76E-45  1.42-107  3.00E-48  0.00E+00
  | Errors for    C  1:  5.50E-16  6.29E-57  1.66E-98  2.64E-64  0.00E+00
  | Errors for    C  0:  7.48E-15  2.00E-45  4.04-108  2.57E-47  0.00E+00
  | Errors for    C  1:  2.90E-15  4.27E-56  1.44E-90  1.49E-64  0.00E+00
  | Errors for    C  0:  1.60E-14  8.14E-45  1.28-104  1.09E-47  0.00E+00
  | Errors for    C  2:  1.48E-14  1.53E-67  0.00E+00  1.66E-81  0.00E+00
  | Errors for    C  3:  1.17E-13  5.46E-57  0.00E+00  1.30E-98  0.00E+00
  | Errors for    C  3:  4.97E-13  9.14E-57  8.54E-59  3.64E-98  0.00E+00
  | Errors for    C  0:  2.04E-14  2.17E-44  1.97-113  5.53E-48  0.00E+00
  | Errors for    C  1:  6.91E-15  1.93E-55  1.02E-62  4.69E-65  0.00E+00
  | Errors for    C  1:  5.54E-13  2.09E-55  7.03-116  1.45E-65  0.00E+00
  | Errors for    C  2:  2.51E-14  1.25E-66  0.00E+00  1.67E-81  0.00E+00
  | Errors for    C  2:  8.82E-14  8.21E-67  2.22-110  2.49E-80  0.00E+00
  | Errors for    C  2:  4.29E-14  9.21E-67  7.68-230  6.07E-80  0.00E+00
  | Errors for    C  4:  1.21E-13  7.43E-46  0.00E+00  4.40-116  0.00E+00
  | Errors for    C  3:  7.52E-13  6.27E-34  9.06E-56  1.81E-98  0.00E+00
  | Errors for    C  2:  4.55E-14  3.66E-44  5.67-135  1.35E-80  0.00E+00
  | Errors for    C  1:  3.08E-13  2.59E-33  7.60-103  1.03E-65  0.00E+00
  | Errors for    C  0:  6.75E-15  7.90E-23  5.43E-94  1.35E-48  0.00E+00
  | Errors for    O  0:  9.08E-16  2.21E-46  5.82-103  1.20E-47  0.00E+00
  | Errors for    O  1:  1.06E-15  2.00E-57  1.37E-98  7.90E-64  0.00E+00
  | Errors for    O  0:  2.13E-15  1.21E-45  7.70-108  6.83E-48  0.00E+00
  | Errors for    O  0:  8.81E-16  3.59E-45  0.00E+00  3.20E-48  0.00E+00
  | Errors for    O  1:  8.28E-15  1.34E-56  1.63E-89  4.68E-64  0.00E+00
  | Errors for    O  3:  9.70E-14  7.32E-58  0.00E+00  9.71E-98  0.00E+00
  | Errors for    O  3:  3.41E-13  1.09E-57  3.03E-58  2.90E-97  0.00E+00
  | Errors for    O  2:  1.92E-14  3.45E-68  0.00E+00  7.72E-81  0.00E+00
  | Errors for    O  0:  1.09E-15  9.60E-45  6.68-110  6.37E-50  0.00E+00
  | Errors for    O  1:  1.23E-14  6.30E-56  5.88E-91  1.65E-64  0.00E+00
  | Errors for    O  1:  4.42E-13  5.69E-56  1.97E-34  1.09E-64  0.00E+00
  | Errors for    O  2:  1.11E-13  2.08E-67  2.55E-95  1.07E-79  0.00E+00
  | Errors for    O  2:  2.79E-14  3.07E-67  0.00E+00  7.42E-81  0.00E+00
  | Errors for    O  4:  9.68E-14  1.32E-46  0.00E+00  5.33-115  0.00E+00
  | Errors for    O  3:  5.19E-13  1.68E-34  1.16E-53  1.38E-97  0.00E+00
  | Errors for    O  2:  3.55E-14  1.60E-44  2.04E-63  3.55E-80  0.00E+00
  | Errors for    O  1:  2.12E-13  1.55E-33  4.19-109  1.48E-65  0.00E+00
  | Errors for    O  0:  6.28E-16  6.71E-23  1.89E-88  1.46E-49  0.00E+00
  | Errors for    N  0:  7.09E-16  3.18E-46  1.34-100  8.47E-48  0.00E+00
  | Errors for    N  1:  2.16E-15  3.34E-57  2.83E-98  4.80E-64  0.00E+00
  | Errors for    N  0:  3.75E-15  1.77E-45  1.28-109  4.66E-48  0.00E+00
  | Errors for    N  0:  1.26E-14  1.31E-45  3.02-122  3.93E-47  0.00E+00
  | Errors for    N  1:  2.05E-14  2.23E-56  1.22E-89  2.78E-64  0.00E+00
  | Errors for    N  0:  2.66E-14  5.20E-45  4.47-130  1.68E-47  0.00E+00
  | Errors for    N  2:  6.83E-15  6.44E-68  0.00E+00  3.93E-81  0.00E+00
  | Errors for    N  3:  2.18E-14  1.87E-57  0.00E+00  3.81E-98  0.00E+00
  | Errors for    N  3:  3.31E-13  3.08E-57  5.77E-59  1.07E-97  0.00E+00
  | Errors for    N  0:  4.50E-14  1.40E-44  1.26-123  8.44E-48  0.00E+00
  | Errors for    N  1:  4.22E-14  1.02E-55  1.93-111  9.09E-65  0.00E+00
  | Errors for    N  1:  3.11E-13  1.07E-55  5.78-148  2.99E-65  0.00E+00
  | Errors for    N  2:  1.35E-14  5.40E-67  0.00E+00  3.90E-81  0.00E+00
  | Errors for    N  2:  6.99E-15  3.67E-67  1.06E-42  5.59E-80  0.00E+00
  | Errors for    N  2:  1.21E-13  3.75E-67  2.66-220  1.47E-79  0.00E+00
  | Errors for    N  4:  6.57E-14  3.05E-46  0.00E+00  1.59-115  0.00E+00
  | Errors for    N  3:  3.85E-13  3.15E-34  4.31E-58  5.28E-98  0.00E+00
  | Errors for    N  2:  5.07E-14  2.30E-44  2.07E-86  3.06E-80  0.00E+00
  | Errors for    N  1:  1.49E-13  1.96E-33  5.37-110  2.06E-65  0.00E+00
  | Errors for    N  0:  1.26E-14  7.24E-23  6.26E-93  2.09E-48  0.00E+00
  | Errors for    H  1:  1.70E-14  2.87E-56  1.44-277  8.46E-66  0.00E+00
  | Errors for    H  0:  2.01E-15  6.26E-45  3.11-238  1.83E-49  0.00E+00
  | Errors for    H  0:  2.75E-15  2.31E-44  1.41-245  1.93E-49  0.00E+00
  | Errors for    H  2:  4.55E-15  3.39E-45  0.00E+00  1.18E-82  0.00E+00
  | Errors for    H  1:  1.90E-14  1.01E-33  1.12-274  5.88E-66  0.00E+00
  | Errors for    H  0:  4.71E-16  8.01E-23  2.62-232  6.02E-50  0.00E+00

  Atomic logSBT for 2-center Coulomb matrix    :  max(cpu_time)    wall_clock(cpu1)
  | Multiplication with kernel                 :        0.076 s           0.069 s
  | Main matrix multiplication                 :        0.124 s           0.093 s
  | Analytic angular integration               :        0.004 s           0.006 s
  | Kernel construction                        :        0.048 s           0.017 s
  | Overall 2-center overlap time              :        0.288 s           0.198 s

  Difference of Coulomb matrix to its transposed:  4.4409E-16
  Task     0: Eigenvalues of the Coulomb matrix range from    4.9893E+00 to    2.2080E-05.
  Task     0: Using      264   eigenvalues out of rank      264   Coulomb matrix (auxiliary basis).

  Multiplying V^-0.5 x ovlp_3fn (1d-scalapack)

  End of correlation preparation               :  max(cpu_time)    wall_clock(cpu1)
  | Product basis setup: Total time            :       14.313 s          14.329 s
  | Product basis: | 3-center integrations     :       13.417 s          13.428 s
  | Product basis: | 2-center integrations     :        0.752 s           0.751 s
  | Product basis: | 2-center linear algebra   :        0.076 s           0.076 s
  | Product basis: | 3-center x 2-center       :        0.016 s           0.016 s

--------------------------------------------
          RPA total energy calculation starts ...

  The first valence state in the frozen-core algorithm :    4
  The ovlp_3KS matrix takes another      1 MiB x      2 procs =       0.002 GiB.


  Initialising transformed Gauss-Legendre time and frequency grids
  Number of freuency points for self energy.....: 40
  Number of frequency points....................: 40

  Starts to calculate the exchange energy ...

  Integrating the xc potential matrix  for basis functions ...

  Starts to calculate the single excitation correction ...

  | Single excitation contribution to the correlation energy:  -1.18846136 eV
  | Renormalized single excitation contribution (diag) to the correlation energy:  -0.70125755  eV


  Starts to calculate the renormalized single excitation (full) correction ...
  Diagonalizing the RSE-HF-Occ matrix  and checking for singularities.

  Diagonalizing the RSE-HF-Unocc matrix  and checking for singularities.


  | Renormalized single excitation contribution (full) to the correlation energy:  -0.68591129  eV


 ----------------------------------- ------------------------------------
  Start to calculate the RPA correlation energy  ... 
  HOMO and first non-fully-occupied orbitals:   12   13

 | i_freq    1            0.000441
 | i_freq    2            0.002329
 | i_freq    3            0.005750
 | i_freq    4            0.010747
 | i_freq    5            0.017381
 | i_freq    6            0.025735
 | i_freq    7            0.035917
 | i_freq    8            0.048062
 | i_freq    9            0.062333
 | i_freq   10            0.078932
 | i_freq   11            0.098102
 | i_freq   12            0.120134
 | i_freq   13            0.145383
 | i_freq   14            0.174274
 | i_freq   15            0.207324
 | i_freq   16            0.245160
 | i_freq   17            0.288549
 | i_freq   18            0.338436
 | i_freq   19            0.395990
 | i_freq   20            0.462675
 | i_freq   21            0.540336
 | i_freq   22            0.631329
 | i_freq   23            0.738693
 | i_freq   24            0.866404
 | i_freq   25            1.019743
 | i_freq   26            1.205842
 | i_freq   27            1.434520
 | i_freq   28            1.719594
 | i_freq   29            2.081004
 | i_freq   30            2.548378
 | i_freq   31            3.167279
 | i_freq   32            4.010715
 | i_freq   33            5.201652
 | i_freq   34            6.960432
 | i_freq   35            9.714380
 | i_freq   36           14.383789
 | i_freq   37           23.262462
 | i_freq   38           43.475277
 | i_freq   39          107.331113
 | i_freq   40          566.943404

 -----------------------------------------------------------------------------
    RPA correlation energy :          -0.74453018  Ha,       -20.25969687  eV

 --------------------------------------------------------------------
    Exact exchange energy             :          -21.06522067 Ha,        -573.21381916 eV
    DFT/HF exchange energy            :          -19.10907786 Ha,        -519.98446511 eV

    DFT/HF total energy               :         -169.70979016 Ha,       -4618.03835349 eV
    Exchange-only total energy        :         -168.91558049 Ha,       -4596.42680864 eV
    RPA total energy                  :         -169.66011066 Ha,       -4616.68650551 eV

    RPA+SE total energy               :         -169.70378581 Ha,       -4617.87496687 eV
    RPA+rSE (diag) total energy       :         -169.68588140 Ha,       -4617.38776306 eV
    RPA+rSE (full) total energy       :         -169.68531744 Ha,       -4617.37241680 eV

    RPA+ total energy                 :         -169.19671025 Ha,       -4604.07673883 eV

 ----------------------------------------------------------------------------


------------------------------------------------------------------------------
  Final output of selected total energy values:

  The following output summarizes some interesting total energy values
  at the end of a run (AFTER all relaxation, molecular dynamics, etc.).

  | Total energy of the DFT / Hartree-Fock s.c.f. calculation      :          -4618.038353493 eV
  | Final zero-broadening corrected energy (caution - metals only) :          -4618.038353493 eV
  | Total energy after the post-s.c.f. correlation calculation     :          -4616.686505510 eV
  | For reference only, the value of 1 Hartree used in FHI-aims is :             27.211384500 eV

  Before relying on these values, please be sure to understand exactly which
  total energy value is referred to by a given number. Different objects may
  all carry the same name 'total energy'. Definitions:

  Total energy of the DFT / Hartree-Fock s.c.f. calculation:
  | Note that this energy does not include ANY quantities calculated after the
  | s.c.f. cycle, in particular not ANY RPA, MP2, etc. many-body perturbation terms.

  Final zero-broadening corrected energy:
  | For metallic systems only, a broadening of the occupation numbers at the Fermi
  | level can be extrapolated back to zero broadening by an electron-gas inspired
  | formula. For all systems that are not real metals, this value can be
  | meaningless and should be avoided.

  Total energy of the post-s.c.f. correlation calculation        :
  | The actual meaning of this energy depends on the setting for the 'total_energy_method'
  | keyword (MP2, RPA, rPT2, etc). If not sure, compare to the results listed above.

------------------------------------------------------------------------------

------------------------------------------------------------
          Leaving FHI-aims.
          Date     :  20120920, Time     :  211605.890

          Computational steps:
          | Number of self-consistency cycles          :           11

          Detailed time accounting                     :  max(cpu_time)    wall_clock(cpu1)
          | Total time                                 :       54.399 s          54.460 s
          | Preparation time                           :        0.416 s           0.418 s
          | Grid partitioning                          :        0.400 s           0.403 s
          | Preloading free-atom quantities on grid    :        0.204 s           0.202 s
          | Free-atom superposition energy             :        0.308 s           0.307 s
          | Total time for integrations                :       13.573 s          13.578 s
          | Product basis setup: Total time            :       14.313 s          14.329 s
          | Product basis: | 3-center integrations     :       13.417 s          13.428 s
          | Product basis: | 2-center integrations     :        0.752 s           0.751 s
          | Product basis: | 2-center linear algebra   :        0.076 s           0.076 s
          | Product basis: | 3-center x 2-center       :        0.016 s           0.016 s
          | Transforming ovlp_3fn to ovlp_3KS          :        0.012 s           0.011 s
          | Total time for evaluating polarisability   :        0.120 s           0.117 s
          | Total time for RPA corr. energy            :        0.068 s           0.066 s
          | Total time for solution of K.-S. equations :        0.032 s           0.017 s
          | Total time for density update              :        9.701 s           9.707 s
          | Total time for mixing                      :        0.456 s           0.445 s
          | Total time for Hartree multipole update    :        0.216 s           0.220 s
          | Total time for Hartree multipole sum       :       12.521 s          12.530 s
          | Total time for total energy evaluation     :        0.008 s           0.005 s

          Have a nice day.
------------------------------------------------------------
