  MPI-parallelism will be employed.
------------------------------------------------------------
          Invoking FHI-aims ...
          Version 081912
          Git rev. (modified): da8b1f0 Change by Igor:
          Compiled on 2012/08/22 at 21:40:32 on host theobook58.

          When using FHI-aims, please cite the following reference:

          Volker Blum, Ralf Gehrke, Felix Hanke, Paula Havu,
          Ville Havu, Xinguo Ren, Karsten Reuter, and Matthias Scheffler,
          'Ab Initio Molecular Simulations with Numeric Atom-Centered Orbitals: FHI-aims',
          Computer Physics Communications 180, 2175-2196 (2009)

------------------------------------------------------------

  Date     :  20120920, Time     :  212857.076
  Time zero on CPU 1             :   0.200010000000000E-01  s.
  Internal wall clock time zero  :           117408537.076  s.

  Using        2 parallel tasks.
  Task        0 on host theobook58 reporting.
  Task        1 on host theobook58 reporting.

  Performing system and environment tests:
  | Environment variable OMP_NUM_THREADS correctly set to 1.
  | Checking for scalapack...
  | No scalapack compiled in.

  Obtaining array dimensions for all initial allocations:
  
  -----------------------------------------------------------------------
  Parsing control.in (first pass over file, find array dimensions only).
  The contents of control.in will be repeated verbatim below
  unless switched off by setting 'verbatim_writeout .false.' .
  in the first line of control.in .
  -----------------------------------------------------------------------
  
  xc                      pbe
  total_energy_method     rpa
  relativistic            none
  occupation_type         integer 0.0001
  mixer                   pulay
  n_max_pulay             10
  charge_mix_param        0.6
  sc_accuracy_rho         1E-6
  sc_accuracy_eev         1E-4
  sc_accuracy_etot        1E-6
  sc_iter_limit           200
  rpa_frozen_core         1
  charge                  0
  ################################################################################
  #
  #  FHI-aims code project
  # Igor Ying Zhang and Xinguo Ren, Fritz Haber Institute Berlin, 2012
  #
  #  Suggested "cc-pVDZ" defaults for O atom (to be pasted into control.in file)
  #
  ################################################################################
    species        O
  #     global species definitions
      nucleus             8
      mass                15.9994
  #
      l_hartree           6
  #
      cut_pot             4.0  2.0  1.0
      basis_dep_cutoff    0e-0
  #
      radial_base         36 7.0
      radial_multiplier   6
      angular_grids       specified
        division   0.1817   50
        division   0.3417  110
        division   0.4949  194
        division   0.6251  302
        division   0.8014  434
  #      division   0.8507  590
  #      division   0.8762  770
  #      division   0.9023  974
  #      division   1.2339 1202
  #      outer_grid 974
        outer_grid  434
  ################################################################################
  #
  #  Definition of "minimal" basis
  #
  ################################################################################
  #     valence basis states
      valence      2  s   2.
      valence      2  p   4.
  #     ion occupancy
      ion_occ      2  s   1.
      ion_occ      2  p   3.
  ################################################################################
  #
  #   For exact comparison with all GTO-based codes, one or more of
  #   the following flags are needed:
  #
      include_min_basis   .false.
      pure_gauss          .true.
  #
  
  # O cc-pVDZ
   gaussian 0 8
     11720.0000000            0.0007100
      1759.0000000            0.0054700
       400.8000000            0.0278370
       113.7000000            0.1048000
        37.0300000            0.2830620
        13.2700000            0.4487190
         5.0250000            0.2709520
         1.0130000            0.0154580
   gaussian 0 8
     11720.0000000           -0.0001600
      1759.0000000           -0.0012630
       400.8000000           -0.0062670
       113.7000000           -0.0257160
        37.0300000           -0.0709240
        13.2700000           -0.1654110
         5.0250000           -0.1169550
         1.0130000            0.5573680
   gaussian 0 1 0.3023000
   gaussian 1 3
        17.7000000            0.0430180
         3.8540000            0.2289130
         1.0460000            0.5087280
   gaussian 1 1 0.2753000
   gaussian 2 1 1.1850000
  ################################################################################
  #
  #  FHI-aims code project
  # Igor Ying Zhang and Xinguo Ren, Fritz Haber Institute Berlin, 2012
  #
  #  Suggested "cc-pVDZ" defaults for N atom (to be pasted into control.in file)
  #
  ################################################################################
    species        N
  #     global species definitions
      nucleus             7
      mass                14.0067
  #
      l_hartree           6
  #
      cut_pot             4.0  2.0  1.0
      basis_dep_cutoff    0e-0
  #
      radial_base         35 7.0
      radial_multiplier   6
      angular_grids       specified
        division   0.1841   50
        division   0.3514  110
        division   0.5126  194
        division   0.6292  302
        division   0.6939  434
  #      division   0.7396  590
  #      division   0.7632  770
  #      division   0.8122  974
  #      division   1.1604 1202
  #      outer_grid  974
        outer_grid  434
  ################################################################################
  #
  #  Definition of "minimal" basis
  #
  ################################################################################
  #     valence basis states
      valence      2  s   2.
      valence      2  p   3.
  #     ion occupancy
      ion_occ      2  s   1.
      ion_occ      2  p   2.
  ################################################################################
  #
  #   For exact comparison with all GTO-based codes, one or more of
  #   the following flags are needed:
  #
      include_min_basis   .false.
      pure_gauss          .true.
  #
  
  # N cc-pVDZ
   gaussian 0 8
      9046.0000000            0.0007000
      1357.0000000            0.0053890
       309.3000000            0.0274060
        87.7300000            0.1032070
        28.5600000            0.2787230
        10.2100000            0.4485400
         3.8380000            0.2782380
         0.7466000            0.0154400
   gaussian 0 8
      9046.0000000           -0.0001530
      1357.0000000           -0.0012080
       309.3000000           -0.0059920
        87.7300000           -0.0245440
        28.5600000           -0.0674590
        10.2100000           -0.1580780
         3.8380000           -0.1218310
         0.7466000            0.5490030
   gaussian 0 1 0.2248000
   gaussian 1 3
        13.5500000            0.0399190
         2.9170000            0.2171690
         0.7973000            0.5103190
   gaussian 1 1 0.2185000
   gaussian 2 1 0.8170000
  ################################################################################
  #
  #  FHI-aims code project
  # Igor Ying Zhang and Xinguo Ren, Fritz Haber Institute Berlin, 2012
  #
  #  Suggested "cc-pVDZ" defaults for C atom (to be pasted into control.in file)
  #
  ################################################################################
    species        C
  #     global species definitions
      nucleus             6
      mass                12.0107
  #
      l_hartree           6
  #
      cut_pot             4.0  2.0  1.0
      basis_dep_cutoff    0e-0
  #
      radial_base         34 7.0
      radial_multiplier   6
      angular_grids       specified
        division   0.2187   50
        division   0.4416  110
        division   0.6335  194
        division   0.7727  302
        division   0.8772  434
  #      division   0.9334  590
  #      division   0.9924  770
  #      division   1.0230  974
  #      division   1.5020 1202
  #     outer_grid  974
        outer_grid  434
  ################################################################################
  #
  #  Definition of "minimal" basis
  #
  ################################################################################
  #     valence basis states
      valence      2  s   2.
      valence      2  p   2.
  #     ion occupancy
      ion_occ      2  s   1.
      ion_occ      2  p   1.
  ################################################################################
  #
  #   For exact comparison with all GTO-based codes, one or more of
  #   the following flags are needed:
  #
      include_min_basis   .false.
      pure_gauss          .true.
  #
  
  # C cc-pVDZ
   gaussian 0 8
      6665.0000000            0.0006920
      1000.0000000            0.0053290
       228.0000000            0.0270770
        64.7100000            0.1017180
        21.0600000            0.2747400
         7.4950000            0.4485640
         2.7970000            0.2850740
         0.5215000            0.0152040
   gaussian 0 8
      6665.0000000           -0.0001460
      1000.0000000           -0.0011540
       228.0000000           -0.0057250
        64.7100000           -0.0233120
        21.0600000           -0.0639550
         7.4950000           -0.1499810
         2.7970000           -0.1272620
         0.5215000            0.5445290
   gaussian 0 1 0.1596000
   gaussian 1 3
         9.4390000            0.0381090
         2.0020000            0.2094800
         0.5456000            0.5085570
   gaussian 1 1 0.1517000
   gaussian 2 1 0.5500000
  ################################################################################
  #
  #  FHI-aims code project
  # Igor Ying Zhang and Xinguo Ren, Fritz Haber Institute Berlin, 2012
  #
  #  Suggested "cc-pVDZ" defaults for H atom (to be pasted into control.in file)
  #
  ################################################################################
    species        H
  #     global species definitions
      nucleus             1
      mass                1.00794
  #
      l_hartree           6
  #
      cut_pot             4.0  2.0  1.0
      basis_dep_cutoff    0e-0
  #
      radial_base         24 7.0
      radial_multiplier   6
      angular_grids       specified
        division   0.1930   50
        division   0.3175  110
        division   0.4293  194
        division   0.5066  302
        division   0.5626  434
  #      division   0.5922  590
  #      division   0.6227  974
  #      division   0.6868 1202
  #      outer_grid  770
        outer_grid  434
  ################################################################################
  #
  #  Definition of "minimal" basis
  #
  ################################################################################
  #     valence basis states
      valence      1  s   1.
  #     ion occupancy
      ion_occ      1  s   0.5
  ################################################################################
  #
  #   For exact comparison with all GTO-based codes, one or more of
  #   the following flags are needed:
  #
      include_min_basis   .false.
      pure_gauss          .true.
  #
  
  # H cc-pVDZ
   gaussian 0 3
        13.0100000            0.0196850
         1.9620000            0.1379770
         0.4446000            0.4781480
   gaussian 0 1 0.1220000
   gaussian 1 1 0.7270000
  
  -----------------------------------------------------------------------
  Completed first pass over input file control.in .
  -----------------------------------------------------------------------
  
  
  -----------------------------------------------------------------------
  Parsing geometry.in (first pass over file, find array dimensions only).
  The contents of geometry.in will be repeated verbatim below
  unless switched off by setting 'verbatim_writeout .false.' .
  in the first line of geometry.in .
  -----------------------------------------------------------------------
  
  atom     -1.76372825     -1.96575932      0.00000000    O
  atom     -0.89461938      2.50847950      0.00000000    O
  atom      0.42311319     -1.28965965      0.00000000    N
  atom     -1.27511955      0.26171529      0.00000000    N
  atom      0.97950762      1.02824850      0.00000000    C
  atom     -0.42599682      1.38422723      0.00000000    C
  atom      1.33933314     -0.27265162      0.00000000    C
  atom     -0.92554284     -1.06366059      0.00000000    C
  atom      1.71295463      1.81593691      0.00000000    H
  atom      0.72585550     -2.27174673      0.00000000    H
  atom     -2.26742365      0.45445709      0.00000000    H
  atom      2.37166640     -0.58958661      0.00000000    H
  
  -----------------------------------------------------------------------
  Completed first pass over input file geometry.in .
  -----------------------------------------------------------------------
  

  Basic array size parameters: 
  | Number of species                 :        4
  | Number of atoms                   :       12
  | Max. basis fn. angular momentum   :        2
  | Max. atomic/ionic basis occupied n:        2
  | Max. number of basis fn. types    :        1
  | Max. radial fns per species/type  :        7
  | Max. logarithmic grid size        :     1301
  | Max. radial integration grid size :      221
  | Max. angular integration grid size:      434
  | Max. angular grid division number :        8
  | Radial grid for Hartree potential :     1301
  | Number of spin channels           :        1

------------------------------------------------------------
          Reading file control.in.
------------------------------------------------------------
  XC: Using PBE gradient-corrected functionals.
  RPA correlation energy calculation will be started after the DFT/HF calculation.
  Non-relativistic treatment of kinetic energy.
  Occupation type: Integer occupation.
  Using pulay charge density mixing.
  Pulay mixing - number of memorized iterations:   10
  Charge density mixing - mixing parameter:     0.6000
  Convergence accuracy of self-consistent charge density: 0.1000E-05
  Convergence accuracy of sum of eigenvalues: 0.1000E-03
  Convergence accuracy of total energy: 0.1000E-05
  Maximum number of s.-c. iterations  :   200
  Core electrons are frozen in the RPA calculation :     1
  Charge =   0.000000E+00: Neutral system requested explicitly.

  Reading configuration options for species O                   .
  | Found nuclear charge :   8.0000
  | Found atomic mass :    15.999400000000000      amu
  | Found l_max for Hartree potential  :   6
  | Found cutoff potl. onset [A], width [A], scale factor :    4.00000    2.00000    1.00000
  | Threshold for basis-dependent cutoff potential is   0.000000E+00
  | Found data for basic radial integration grid :    36 points, outermost radius =    7.000 A
  | Found multiplier for basic radial grid :   6
  | Found angular grid specification: user-specified.
  | Specified grid contains     6 separate shells.
  | Check grid settings after all constraints further below.
  | Found free-atom valence shell :  2 s   2.000
  | Found free-atom valence shell :  2 p   4.000
  | No ionic wave fns used. Skipping ion_occ.
  | No ionic wave fns used. Skipping ion_occ.
  | Found request to include minimal basis fns. :     F
  | Found request to include pure gaussian fns. :     T
  | Found contracted cartesian Gaussian basis function :  L = 0 ,   8 elementary Gaussians:
  |   alpha = 0.117200E+05 weight = 0.710000E-03
  |   alpha = 0.175900E+04 weight = 0.547000E-02
  |   alpha = 0.400800E+03 weight = 0.278370E-01
  |   alpha = 0.113700E+03 weight = 0.104800E+00
  |   alpha = 0.370300E+02 weight = 0.283062E+00
  |   alpha = 0.132700E+02 weight = 0.448719E+00
  |   alpha = 0.502500E+01 weight = 0.270952E+00
  |   alpha = 0.101300E+01 weight = 0.154580E-01
  |   In terms of angular momentum, this radial function adds: 
  |     1 s-type basis function
  | Found contracted cartesian Gaussian basis function :  L = 0 ,   8 elementary Gaussians:
  |   alpha = 0.117200E+05 weight = -.160000E-03
  |   alpha = 0.175900E+04 weight = -.126300E-02
  |   alpha = 0.400800E+03 weight = -.626700E-02
  |   alpha = 0.113700E+03 weight = -.257160E-01
  |   alpha = 0.370300E+02 weight = -.709240E-01
  |   alpha = 0.132700E+02 weight = -.165411E+00
  |   alpha = 0.502500E+01 weight = -.116955E+00
  |   alpha = 0.101300E+01 weight = 0.557368E+00
  |   In terms of angular momentum, this radial function adds: 
  |     1 s-type basis function
  | Found primitive cartesian Gaussian basis function :  0 0.302300E+00
  |   In terms of angular momentum, this radial function adds: 
  |     1 s-type basis function
  | Found contracted cartesian Gaussian basis function :  L = 1 ,   3 elementary Gaussians:
  |   alpha = 0.177000E+02 weight = 0.430180E-01
  |   alpha = 0.385400E+01 weight = 0.228913E+00
  |   alpha = 0.104600E+01 weight = 0.508728E+00
  |   In terms of angular momentum, this radial function adds: 
  |     3 p-type basis functions
  | Found primitive cartesian Gaussian basis function :  1 0.275300E+00
  |   In terms of angular momentum, this radial function adds: 
  |     3 p-type basis functions
  | Found primitive cartesian Gaussian basis function :  2 0.118500E+01
  |   In terms of angular momentum, this radial function adds: 
  |     5 d-type basis functions
  Species O                   : Missing cutoff potential type.
  Defaulting to exp(1/x)/(1-x)^2 type cutoff potential.
  Species O : No 'logarithmic' tag. Using default grid for free atom:
  | Default logarithmic grid data [bohr] : 0.1000E-03 0.1000E+03 0.1012E+01
  Species O : On-site basis accuracy parameter (for Gram-Schmidt orthonormalisation) not specified.
  Using default value basis_acc =  0.1000000E-03.
  Species O                   : Using default innermost maximum threshold i_radial=  2 for radial functions.
  Species O                   : Default cutoff onset for free atom density etc. is infinite
  since the product basis is used (hybrid functionals, Hartree-Fock, GW etc.).
  Species O                   : Basic radial grid will be enhanced according to radial_multiplier =   6, to contain   221 grid points.

  Reading configuration options for species N                   .
  | Found nuclear charge :   7.0000
  | Found atomic mass :    14.006700000000000      amu
  | Found l_max for Hartree potential  :   6
  | Found cutoff potl. onset [A], width [A], scale factor :    4.00000    2.00000    1.00000
  | Threshold for basis-dependent cutoff potential is   0.000000E+00
  | Found data for basic radial integration grid :    35 points, outermost radius =    7.000 A
  | Found multiplier for basic radial grid :   6
  | Found angular grid specification: user-specified.
  | Specified grid contains     6 separate shells.
  | Check grid settings after all constraints further below.
  | Found free-atom valence shell :  2 s   2.000
  | Found free-atom valence shell :  2 p   3.000
  | No ionic wave fns used. Skipping ion_occ.
  | No ionic wave fns used. Skipping ion_occ.
  | Found request to include minimal basis fns. :     F
  | Found request to include pure gaussian fns. :     T
  | Found contracted cartesian Gaussian basis function :  L = 0 ,   8 elementary Gaussians:
  |   alpha = 0.904600E+04 weight = 0.700000E-03
  |   alpha = 0.135700E+04 weight = 0.538900E-02
  |   alpha = 0.309300E+03 weight = 0.274060E-01
  |   alpha = 0.877300E+02 weight = 0.103207E+00
  |   alpha = 0.285600E+02 weight = 0.278723E+00
  |   alpha = 0.102100E+02 weight = 0.448540E+00
  |   alpha = 0.383800E+01 weight = 0.278238E+00
  |   alpha = 0.746600E+00 weight = 0.154400E-01
  |   In terms of angular momentum, this radial function adds: 
  |     1 s-type basis function
  | Found contracted cartesian Gaussian basis function :  L = 0 ,   8 elementary Gaussians:
  |   alpha = 0.904600E+04 weight = -.153000E-03
  |   alpha = 0.135700E+04 weight = -.120800E-02
  |   alpha = 0.309300E+03 weight = -.599200E-02
  |   alpha = 0.877300E+02 weight = -.245440E-01
  |   alpha = 0.285600E+02 weight = -.674590E-01
  |   alpha = 0.102100E+02 weight = -.158078E+00
  |   alpha = 0.383800E+01 weight = -.121831E+00
  |   alpha = 0.746600E+00 weight = 0.549003E+00
  |   In terms of angular momentum, this radial function adds: 
  |     1 s-type basis function
  | Found primitive cartesian Gaussian basis function :  0 0.224800E+00
  |   In terms of angular momentum, this radial function adds: 
  |     1 s-type basis function
  | Found contracted cartesian Gaussian basis function :  L = 1 ,   3 elementary Gaussians:
  |   alpha = 0.135500E+02 weight = 0.399190E-01
  |   alpha = 0.291700E+01 weight = 0.217169E+00
  |   alpha = 0.797300E+00 weight = 0.510319E+00
  |   In terms of angular momentum, this radial function adds: 
  |     3 p-type basis functions
  | Found primitive cartesian Gaussian basis function :  1 0.218500E+00
  |   In terms of angular momentum, this radial function adds: 
  |     3 p-type basis functions
  | Found primitive cartesian Gaussian basis function :  2 0.817000E+00
  |   In terms of angular momentum, this radial function adds: 
  |     5 d-type basis functions
  Species N                   : Missing cutoff potential type.
  Defaulting to exp(1/x)/(1-x)^2 type cutoff potential.
  Species N : No 'logarithmic' tag. Using default grid for free atom:
  | Default logarithmic grid data [bohr] : 0.1000E-03 0.1000E+03 0.1012E+01
  Species N : On-site basis accuracy parameter (for Gram-Schmidt orthonormalisation) not specified.
  Using default value basis_acc =  0.1000000E-03.
  Species N                   : Using default innermost maximum threshold i_radial=  2 for radial functions.
  Species N                   : Default cutoff onset for free atom density etc. is infinite
  since the product basis is used (hybrid functionals, Hartree-Fock, GW etc.).
  Species N                   : Basic radial grid will be enhanced according to radial_multiplier =   6, to contain   215 grid points.

  Reading configuration options for species C                   .
  | Found nuclear charge :   6.0000
  | Found atomic mass :    12.010700000000000      amu
  | Found l_max for Hartree potential  :   6
  | Found cutoff potl. onset [A], width [A], scale factor :    4.00000    2.00000    1.00000
  | Threshold for basis-dependent cutoff potential is   0.000000E+00
  | Found data for basic radial integration grid :    34 points, outermost radius =    7.000 A
  | Found multiplier for basic radial grid :   6
  | Found angular grid specification: user-specified.
  | Specified grid contains     6 separate shells.
  | Check grid settings after all constraints further below.
  | Found free-atom valence shell :  2 s   2.000
  | Found free-atom valence shell :  2 p   2.000
  | No ionic wave fns used. Skipping ion_occ.
  | No ionic wave fns used. Skipping ion_occ.
  | Found request to include minimal basis fns. :     F
  | Found request to include pure gaussian fns. :     T
  | Found contracted cartesian Gaussian basis function :  L = 0 ,   8 elementary Gaussians:
  |   alpha = 0.666500E+04 weight = 0.692000E-03
  |   alpha = 0.100000E+04 weight = 0.532900E-02
  |   alpha = 0.228000E+03 weight = 0.270770E-01
  |   alpha = 0.647100E+02 weight = 0.101718E+00
  |   alpha = 0.210600E+02 weight = 0.274740E+00
  |   alpha = 0.749500E+01 weight = 0.448564E+00
  |   alpha = 0.279700E+01 weight = 0.285074E+00
  |   alpha = 0.521500E+00 weight = 0.152040E-01
  |   In terms of angular momentum, this radial function adds: 
  |     1 s-type basis function
  | Found contracted cartesian Gaussian basis function :  L = 0 ,   8 elementary Gaussians:
  |   alpha = 0.666500E+04 weight = -.146000E-03
  |   alpha = 0.100000E+04 weight = -.115400E-02
  |   alpha = 0.228000E+03 weight = -.572500E-02
  |   alpha = 0.647100E+02 weight = -.233120E-01
  |   alpha = 0.210600E+02 weight = -.639550E-01
  |   alpha = 0.749500E+01 weight = -.149981E+00
  |   alpha = 0.279700E+01 weight = -.127262E+00
  |   alpha = 0.521500E+00 weight = 0.544529E+00
  |   In terms of angular momentum, this radial function adds: 
  |     1 s-type basis function
  | Found primitive cartesian Gaussian basis function :  0 0.159600E+00
  |   In terms of angular momentum, this radial function adds: 
  |     1 s-type basis function
  | Found contracted cartesian Gaussian basis function :  L = 1 ,   3 elementary Gaussians:
  |   alpha = 0.943900E+01 weight = 0.381090E-01
  |   alpha = 0.200200E+01 weight = 0.209480E+00
  |   alpha = 0.545600E+00 weight = 0.508557E+00
  |   In terms of angular momentum, this radial function adds: 
  |     3 p-type basis functions
  | Found primitive cartesian Gaussian basis function :  1 0.151700E+00
  |   In terms of angular momentum, this radial function adds: 
  |     3 p-type basis functions
  | Found primitive cartesian Gaussian basis function :  2 0.550000E+00
  |   In terms of angular momentum, this radial function adds: 
  |     5 d-type basis functions
  Species C                   : Missing cutoff potential type.
  Defaulting to exp(1/x)/(1-x)^2 type cutoff potential.
  Species C : No 'logarithmic' tag. Using default grid for free atom:
  | Default logarithmic grid data [bohr] : 0.1000E-03 0.1000E+03 0.1012E+01
  Species C : On-site basis accuracy parameter (for Gram-Schmidt orthonormalisation) not specified.
  Using default value basis_acc =  0.1000000E-03.
  Species C                   : Using default innermost maximum threshold i_radial=  2 for radial functions.
  Species C                   : Default cutoff onset for free atom density etc. is infinite
  since the product basis is used (hybrid functionals, Hartree-Fock, GW etc.).
  Species C                   : Basic radial grid will be enhanced according to radial_multiplier =   6, to contain   209 grid points.

  Reading configuration options for species H                   .
  | Found nuclear charge :   1.0000
  | Found atomic mass :    1.0079400000000001      amu
  | Found l_max for Hartree potential  :   6
  | Found cutoff potl. onset [A], width [A], scale factor :    4.00000    2.00000    1.00000
  | Threshold for basis-dependent cutoff potential is   0.000000E+00
  | Found data for basic radial integration grid :    24 points, outermost radius =    7.000 A
  | Found multiplier for basic radial grid :   6
  | Found angular grid specification: user-specified.
  | Specified grid contains     6 separate shells.
  | Check grid settings after all constraints further below.
  | Found free-atom valence shell :  1 s   1.000
  | No ionic wave fns used. Skipping ion_occ.
  | Found request to include minimal basis fns. :     F
  | Found request to include pure gaussian fns. :     T
  | Found contracted cartesian Gaussian basis function :  L = 0 ,   3 elementary Gaussians:
  |   alpha = 0.130100E+02 weight = 0.196850E-01
  |   alpha = 0.196200E+01 weight = 0.137977E+00
  |   alpha = 0.444600E+00 weight = 0.478148E+00
  |   In terms of angular momentum, this radial function adds: 
  |     1 s-type basis function
  | Found primitive cartesian Gaussian basis function :  0 0.122000E+00
  |   In terms of angular momentum, this radial function adds: 
  |     1 s-type basis function
  | Found primitive cartesian Gaussian basis function :  1 0.727000E+00
  |   In terms of angular momentum, this radial function adds: 
  |     3 p-type basis functions
  Species H                   : Missing cutoff potential type.
  Defaulting to exp(1/x)/(1-x)^2 type cutoff potential.
  Species H : No 'logarithmic' tag. Using default grid for free atom:
  | Default logarithmic grid data [bohr] : 0.1000E-03 0.1000E+03 0.1012E+01
  Species H : On-site basis accuracy parameter (for Gram-Schmidt orthonormalisation) not specified.
  Using default value basis_acc =  0.1000000E-03.
  Species H                   : Using default innermost maximum threshold i_radial=  2 for radial functions.
  Species H                   : Default cutoff onset for free atom density etc. is infinite
  since the product basis is used (hybrid functionals, Hartree-Fock, GW etc.).
  Species H                   : Basic radial grid will be enhanced according to radial_multiplier =   6, to contain   149 grid points.

  Finished reading input file 'control.in'. Consistency checks are next.

  Species O: Using default value for prodbas_acc =   1.000000E-02.
  Species O: Using default value max_l_prodbas =     5.
  Species N: Using default value for prodbas_acc =   1.000000E-02.
  Species N: Using default value max_l_prodbas =     5.
  Species C: Using default value for prodbas_acc =   1.000000E-02.
  Species C: Using default value max_l_prodbas =     5.
  Species H: Using default value for prodbas_acc =   1.000000E-02.
  Species H: Using default value max_l_prodbas =     5.
  Target number of points in a grid batch is not set. Defaulting to  100
  Method for grid partitioning is not set. Defaulting to parallel hash+maxmin partitioning.
  Batch size limit is not set. Defaulting to    200
  By default, will store active basis functions for each batch.
  If in need of memory, prune_basis_once .false. can be used to disable this option.
  communication_type for Hartree potential was not specified.
  Defaulting to calc_hartree .
  Pulay mixer: Number of initial linear mixing iterations not set.
  Defaulting to    0 iterations.
  Work space size for distributed Hartree potential not set.
  Defaulting to   0.200000E+03 MB.
  Algorithm-dependent basis array size parameters:
  | n_max_pulay                         :       10
  Calculation of forces was not defined in control.in. No forces will be calculated.
  Geometry relaxation not requested: no relaxation will be performed.
  No accuracy limit for integral partition fn. given. Defaulting to 0.1000E-14.
  No threshold value for u(r) in integrations given. Defaulting to 0.1000E-05.
  No accuracy for occupation numbers given. Defaulting to 0.1000E-07.
  No threshold value for occupation numbers given. Defaulting to 0.0000E+00.
  No accuracy for fermi level given. Defaulting to 0.1000E-19.
  Maximum # of iterations to find E_F not set. Defaulting to  200.
  Preferred method for the eigenvalue solver ('KS_method') not specified in 'control.in'.
  Calling blacs routine to test compilation state
  The best choice would be 'elpa', but your version of FHI-aims is compiled without scalapack support.
  Defaulting to 'lapack_fast' instead (serial solution, time will not improve with more CPUs).
  Will not use alltoall communication since running on < 1024 CPUs.
  Threshold for basis singularities not set.
  Default threshold for basis singularities: 0.1000E-04
  partition_type (choice of integration weights) for integrals was not specified.
  | Using a version of the partition function of Stratmann and coworkers ('stratmann_smoother').
  | At each grid point, the set of atoms used to build the partition table is smoothly restricted to
  | only those atoms whose free-atom density would be non-zero at that grid point.
  Partitioning for Hartree potential was not defined. Using partition_type for integrals.
  | Adjusted default value of keyword multip_moments_threshold to:       0.10000000E-11
  | This value may affect high angular momentum components of the Hartree potential in periodic systems.
  Spin handling was not defined in control.in. Defaulting to unpolarized case.
  Threshold for auxiliary basis singularities not set.
  Default threshold for auxiliary basis singularities: 0.1000E-04
  * Doing correlated calculations, so all empty single-particle states will be included.
  No q(lm)/r^(l+1) cutoff set for long-range Hartree potential.
  | Using default value of  0.100000E-09 .
  | Verify using the multipole_threshold keyword.
  Defaulting to new monopole extrapolation.
  Density update method: automatic selection selected.
  Default to 1D ("use_logsbt") integrations for auxiliary 2-center integrals.
  Default onset of logarithmic r-grid for SBT is-38.000000000000
  Default onset of logarithmic k-grid for SBT is-25.000000000000
  Default range of logarithmic r- and k-grid for SBT is 45.000000000000
  Default number of logarithmic r- and k-grid for SBT is 16384
------------------------------------------------------------


------------------------------------------------------------
          Reading geometry description geometry.in.
------------------------------------------------------------
  Input structure read successfully.
  The structure contains       12 atoms,  and a total of         58.000 electrons.

  Input geometry:
  | No unit cell requested.
  | Atomic structure:
  |       Atom                x [A]            y [A]            z [A]
  |    1: Species O         -1.763728        -1.965759         0.000000
  |    2: Species O         -0.894619         2.508479         0.000000
  |    3: Species N          0.423113        -1.289660         0.000000
  |    4: Species N         -1.275120         0.261715         0.000000
  |    5: Species C          0.979508         1.028248         0.000000
  |    6: Species C         -0.425997         1.384227         0.000000
  |    7: Species C          1.339333        -0.272652         0.000000
  |    8: Species C         -0.925543        -1.063661         0.000000
  |    9: Species H          1.712955         1.815937         0.000000
  |   10: Species H          0.725855        -2.271747         0.000000
  |   11: Species H         -2.267424         0.454457         0.000000
  |   12: Species H          2.371666        -0.589587         0.000000
  |
  | Closest distance between atoms is    1.011 AA.

  Structure-dependent array size parameters: 
  | Maximum number of distinct radial functions  :       21
  | Maximum number of basis functions            :      132
  | Number of Kohn-Sham states (occupied + empty):    12029
------------------------------------------------------------

------------------------------------------------------------
          Preparing all fixed parts of the calculation.
------------------------------------------------------------
  Determining machine precision:
    2.22507385850720138E-308
  Setting up grids for atomic and cluster calculations.

  Creating wave function, potential, and density for free atoms.

  Species: O

  List of occupied orbitals and eigenvalues:
    n    l              occ      energy [Ha]    energy [eV]
    1    0           2.0000       -18.898644      -514.2583
    2    0           2.0000        -0.878848       -23.9147
    2    1           4.0000        -0.332128        -9.0377


  Species: N

  List of occupied orbitals and eigenvalues:
    n    l              occ      energy [Ha]    energy [eV]
    1    0           2.0000       -14.129248      -384.4764
    2    0           2.0000        -0.681982       -18.5577
    2    1           3.0000        -0.260725        -7.0947


  Species: C

  List of occupied orbitals and eigenvalues:
    n    l              occ      energy [Ha]    energy [eV]
    1    0           2.0000       -10.042041      -273.2578
    2    0           2.0000        -0.504901       -13.7390
    2    1           2.0000        -0.194353        -5.2886


  Species: H

  List of occupied orbitals and eigenvalues:
    n    l              occ      energy [Ha]    energy [eV]
    1    0           1.0000        -0.238600        -6.4926

  Creating fixed part of basis set: Ionic, confined, hydrogenic.

  O                    Gaussian:

  List of cartesian Gaussian basis orbitals: 
    L    l
    0    0
    0    0
    0    0
    1    1
    1    1
    2    2


  N                    Gaussian:

  List of cartesian Gaussian basis orbitals: 
    L    l
    0    0
    0    0
    0    0
    1    1
    1    1
    2    2


  C                    Gaussian:

  List of cartesian Gaussian basis orbitals: 
    L    l
    0    0
    0    0
    0    0
    1    1
    1    1
    2    2


  H                    Gaussian:

  List of cartesian Gaussian basis orbitals: 
    L    l
    0    0
    0    0
    1    1


  Adding cutoff potential to free-atom effective potential.
  Creating atomic-like basis functions for current effective potential.
  Assembling full basis from fixed parts.
  | Species O : gaussian orbital   0 s accepted.
  | Species O : gaussian orbital   0 s accepted.
  | Species O : gaussian orbital   0 s accepted.
  | Species O : gaussian orbital   1 p accepted.
  | Species O : gaussian orbital   1 p accepted.
  | Species O : gaussian orbital   2 d accepted.
  | Species N : gaussian orbital   0 s accepted.
  | Species N : gaussian orbital   0 s accepted.
  | Species N : gaussian orbital   0 s accepted.
  | Species N : gaussian orbital   1 p accepted.
  | Species N : gaussian orbital   1 p accepted.
  | Species N : gaussian orbital   2 d accepted.
  | Species C : gaussian orbital   0 s accepted.
  | Species C : gaussian orbital   0 s accepted.
  | Species C : gaussian orbital   0 s accepted.
  | Species C : gaussian orbital   1 p accepted.
  | Species C : gaussian orbital   1 p accepted.
  | Species C : gaussian orbital   2 d accepted.
  | Species H : gaussian orbital   0 s accepted.
  | Species H : gaussian orbital   0 s accepted.
  | Species H : gaussian orbital   1 p accepted.

  * You requested    12029 Kohn-Sham states in the calculation,
  * but there are only      132 available basis states.
  * Reducing total number of  Kohn-Sham states to      132.


  Basis size parameters after reduction:
  | Total number of radial functions:       21
  | Total number of basis functions :      132

  Preparing densities etc. for the partition functions (integrals / Hartree potential).

  Preparations completed.
  max(cpu_time)          :      0.384 s.
  Wall clock time (cpu1) :      0.399 s.
------------------------------------------------------------

------------------------------------------------------------
          Begin self-consistency loop: Initialization.

          Date     :  20120920, Time     :  212857.486
------------------------------------------------------------

  Initializing index lists of integration centers etc. from given atomic structure:
  | Number of centers in hartree potential         :        12
  | Number of centers in hartree multipole         :        12
  | Number of centers in electron density summation:        12
  | Number of centers in basis integrals           :        12
  | Number of centers in integrals                 :        12
  Partitioning the integration grid into batches with parallel hashing+maxmin method.
  | Number of batches:     6352
  | Maximal batch size:     178
  | Minimal batch size:      66
  | Average batch size:     100.137
  | Standard deviation of batch sizes:      34.317

  Integration load balanced across     2 MPI tasks.
  Work distribution over tasks is as follows:
  Task     0 has     317958 integration points.
  Task     1 has     318114 integration points.
  Initializing partition tables, free-atom densities, potentials, etc.
  across the integration grid (initialize_grid_storage).
  | Net number of integration points:   636072
  | of which are non-zero points    :   518411
  Obtaining max. number of non-zero basis functions in each batch (get_n_compute_maxes).
  | Maximal number of non-zero basis functions:      127 in task     0
  | Maximal number of non-zero basis functions:      127 in task     1
  Selecting the method for density update.
  Loop over occupied states selected for charge density update.
  Integrating Hamiltonian matrix: batch-based integration.
  Time summed over all CPUs for integration: real work        7.546 s, elapsed        7.825 s
  Integrating overlap matrix.
  Time summed over all CPUs for integration: real work        3.521 s, elapsed        3.633 s

  Updating Kohn-Sham eigenvalues, eigenvectors, occupation numbers, and Fermi level.
  Solving generalized eigenproblem
  Updating Kohn-Sham eigenvalues and eigenfunctions.
  Transforming overlap matrix and checking for singularities.
  Overlap matrix is nonsingular:
  | Lowest eigenvalue:  0.153074E-02
  Solving real generalised eigenvalue problem by standard LAPACK (fast)
  Determining occupation numbers for Kohn-Sham eigenstates.
  | Chemical potential (Fermi level) in eV                 : -.76808192E+01
  | Error in electron count due to remaining E_F inaccuracy: 0.00000000E+00
  | Maximum occupation number of highest empty state:  0.00E+00

  Writing Kohn-Sham eigenvalues.

  State    Occupation    Eigenvalue [Ha]    Eigenvalue [eV]
      1       2.00000         -18.976072         -516.36520
      2       2.00000         -18.971929         -516.25246
      3       2.00000         -14.263786         -388.13735
      4       2.00000         -14.259661         -388.02513
      5       2.00000         -10.162366         -276.53205
      6       2.00000         -10.159843         -276.46341
      7       2.00000         -10.140760         -275.94411
      8       2.00000         -10.139542         -275.91098
      9       2.00000          -1.142380          -31.08573
     10       2.00000          -1.129401          -30.73257
     11       2.00000          -1.045495          -28.44937
     12       2.00000          -0.990797          -26.96097
     13       2.00000          -0.891182          -24.25030
     14       2.00000          -0.767257          -20.87813
     15       2.00000          -0.742261          -20.19796
     16       2.00000          -0.679045          -18.47776
     17       2.00000          -0.660404          -17.97050
     18       2.00000          -0.597081          -16.24740
     19       2.00000          -0.577194          -15.70625
     20       2.00000          -0.564030          -15.34805
     21       2.00000          -0.547536          -14.89922
     22       2.00000          -0.542734          -14.76854
     23       2.00000          -0.521173          -14.18183
     24       2.00000          -0.495830          -13.49223
     25       2.00000          -0.455492          -12.39457
     26       2.00000          -0.414545          -11.28033
     27       2.00000          -0.397801          -10.82473
     28       2.00000          -0.395728          -10.76831
     29       2.00000          -0.365680           -9.95066
     30       0.00000          -0.198850           -5.41098
     31       0.00000          -0.143185           -3.89626
     32       0.00000          -0.048690           -1.32492
     33       0.00000          -0.047789           -1.30040
     34       0.00000          -0.006364           -0.17317
     35       0.00000           0.002366            0.06437
     36       0.00000           0.023181            0.63078
     37       0.00000           0.042810            1.16492
     38       0.00000           0.059800            1.62725
     39       0.00000           0.093149            2.53473
     40       0.00000           0.115701            3.14839
     41       0.00000           0.150669            4.09992
     42       0.00000           0.186946            5.08706
     43       0.00000           0.221967            6.04003
     44       0.00000           0.272428            7.41314
     45       0.00000           0.294206            8.00577
     46       0.00000           0.304146            8.27625
     47       0.00000           0.314681            8.56290
     48       0.00000           0.328308            8.93373
     49       0.00000           0.357559            9.72968
     50       0.00000           0.382960           10.42087
     51       0.00000           0.385602           10.49277
     52       0.00000           0.401377           10.92202
     53       0.00000           0.404312           11.00189
     54       0.00000           0.442757           12.04803
     55       0.00000           0.465238           12.65978
     56       0.00000           0.500589           13.62172
     57       0.00000           0.522875           14.22816
     58       0.00000           0.524552           14.27378
     59       0.00000           0.539651           14.68465
     60       0.00000           0.618583           16.83250
     61       0.00000           0.621316           16.90688
     62       0.00000           0.627446           17.07369
     63       0.00000           0.673284           18.32099
     64       0.00000           0.702591           19.11847
     65       0.00000           0.712788           19.39594
     66       0.00000           0.733832           19.96859
     67       0.00000           0.751670           20.45397
     68       0.00000           0.791954           21.55015
     69       0.00000           0.836135           22.75238
     70       0.00000           0.867276           23.59978
     71       0.00000           0.875169           23.81455
     72       0.00000           0.875907           23.83465
     73       0.00000           0.901827           24.53996
     74       0.00000           0.913393           24.85469
     75       0.00000           0.918525           24.99433
     76       0.00000           0.948982           25.82312
     77       0.00000           0.960545           26.13777
     78       0.00000           0.985298           26.81131
     79       0.00000           0.997961           27.15590
     80       0.00000           1.051047           28.60045
     81       0.00000           1.124266           30.59282
     82       0.00000           1.202393           32.71878
     83       0.00000           1.255505           34.16403
     84       0.00000           1.284812           34.96151
     85       0.00000           1.303334           35.46552
     86       0.00000           1.321625           35.96324
     87       0.00000           1.384901           37.68506
     88       0.00000           1.400601           38.11230
     89       0.00000           1.406808           38.28118
     90       0.00000           1.447369           39.38490
     91       0.00000           1.466875           39.91571
     92       0.00000           1.498895           40.78702
     93       0.00000           1.514946           41.22378
     94       0.00000           1.518571           41.32242
     95       0.00000           1.545057           42.04314
     96       0.00000           1.577615           42.92909
     97       0.00000           1.594618           43.39177
     98       0.00000           1.620406           44.09350
     99       0.00000           1.665234           45.31332
    100       0.00000           1.697101           46.18046
    101       0.00000           1.728238           47.02776
    102       0.00000           1.750942           47.64557
    103       0.00000           1.808319           49.20686
    104       0.00000           1.862571           50.68312
    105       0.00000           1.927314           52.44488
    106       0.00000           1.930452           52.53026
    107       0.00000           1.949627           53.05204
    108       0.00000           1.989962           54.14962
    109       0.00000           1.998709           54.38764
    110       0.00000           2.070203           56.33310
    111       0.00000           2.105225           57.28609
    112       0.00000           2.130864           57.98375
    113       0.00000           2.149744           58.49750
    114       0.00000           2.246681           61.13530
    115       0.00000           2.270229           61.77607
    116       0.00000           2.311819           62.90780
    117       0.00000           2.359246           64.19834
    118       0.00000           2.391867           65.08602
    119       0.00000           2.421845           65.90174
    120       0.00000           2.468611           67.17433
    121       0.00000           2.512547           68.36988
    122       0.00000           2.542157           69.17562
    123       0.00000           2.584720           70.33382
    124       0.00000           2.760987           75.13027
    125       0.00000           2.800007           76.19205
    126       0.00000           2.835710           77.16360
    127       0.00000           2.859167           77.80189
    128       0.00000           3.111329           84.66357
    129       0.00000           3.152755           85.79084
    130       0.00000           3.179297           86.51306
    131       0.00000           3.207594           87.28306
    132       0.00000           3.388416           92.20349

  Highest occupied state (VBM) at     -9.95065896 eV
  | Occupation number:      2.00000000

  Lowest unoccupied state (CBM) at    -5.41097947 eV
  | Occupation number:      0.00000000

  Overall HOMO-LUMO gap:      4.53967949 eV.
  Calculating total energy contributions from superposition of free atom densities.

  Total energy components:
  | Sum of eigenvalues            :        -241.99401509 Ha       -6584.99219128 eV
  | XC energy correction          :         -52.98304316 Ha       -1441.74195941 eV
  | XC potential correction       :          68.09559475 Ha        1852.97541143 eV
  | Free-atom electrostatic energy:        -187.77223603 Ha       -5109.54251294 eV
  | Hartree energy correction     :          -0.00000000 Ha          -0.00000000 eV
  | Entropy correction            :          -0.00000000 Ha          -0.00000000 eV
  | ---------------------------
  | Total energy                  :        -414.65369953 Ha      -11283.30125221 eV
  | Total energy, T -> 0          :        -414.65369953 Ha      -11283.30125221 eV  <-- only rely on this value for actual (periodic) metals
  | Electronic free energy        :        -414.65369953 Ha      -11283.30125221 eV

  Derived energy quantities:
  | Kinetic energy                :         411.91835220 Ha       11208.86866428 eV
  | Electrostatic energy          :        -773.58900857 Ha      -21050.42795707 eV
  | Energy correction for multipole
  | error in Hartree potential    :           0.00000000 Ha           0.00000000 eV
  | Sum of eigenvalues per atom                           :        -548.74934927 eV
  | Total energy (T->0) per atom                          :        -940.27510435 eV  <-- only rely on this value for actual (periodic) metals
  | Electronic free energy per atom                       :        -940.27510435 eV
  Initialize hartree_potential_storage
  Max. number of atoms included in rho_multipole:           12

  End scf initialization - timings             :  max(cpu_time)    wall_clock(cpu1)
  | Time for scf. initialization               :       10.317 s          10.328 s
  | Boundary condition initialization          :        0.000 s           0.000 s
  | Integration                                :        5.720 s           5.730 s
  | Solution of K.-S. eqns.                    :        0.028 s           0.027 s
  | Grid partitioning                          :        0.972 s           0.972 s
  | Preloading free-atom quantities on grid    :        0.208 s           0.207 s
  | Free-atom superposition energy             :        0.892 s           0.890 s
  | Total energy evaluation                    :        0.000 s           0.000 s
------------------------------------------------------------

------------------------------------------------------------
          Begin self-consistency iteration #    1

  Date     :  20120920, Time     :  212907.814
------------------------------------------------------------
  Evaluating new KS density.
  Integration grid: deviation in total charge (<rho> - N_e) =  -2.131628E-14
  Pulay mixing of updated and previous charge densities.

  Evaluating partitioned Hartree potential by multipole expansion.
  | Analytical far-field extrapolation by fixed multipoles:
  | Hartree multipole sum: apparent total charge =   0.341316E-04
  Summing up the Hartree potential.
  Time summed over all CPUs for potential: real work        9.557 s, elapsed        9.575 s
  | RMS charge density error from multipole expansion :   0.100038E-01

  Integrating Hamiltonian matrix: batch-based integration.
  Time summed over all CPUs for integration: real work        7.573 s, elapsed        7.818 s

  Updating Kohn-Sham eigenvalues, eigenvectors, occupation numbers, and Fermi level.
  Solving generalized eigenproblem
  Updating Kohn-Sham eigenvalues and eigenfunctions.
  Solving real generalised eigenvalue problem by standard LAPACK (fast)
  Determining occupation numbers for Kohn-Sham eigenstates.
  | Chemical potential (Fermi level) in eV                 : -.33245644E+01
  | Error in electron count due to remaining E_F inaccuracy: 0.00000000E+00
  | Maximum occupation number of highest empty state:  0.00E+00

  Writing Kohn-Sham eigenvalues.

  State    Occupation    Eigenvalue [Ha]    Eigenvalue [eV]
      1       2.00000         -18.566303         -505.21481
      2       2.00000         -18.558972         -505.01531
      3       2.00000         -14.047094         -382.24087
      4       2.00000         -13.998991         -380.93193
      5       2.00000         -10.116198         -275.27574
      6       2.00000         -10.051054         -273.50309
      7       2.00000          -9.988625         -271.80432
      8       2.00000          -9.841456         -267.79964
      9       2.00000          -0.998222          -27.16300
     10       2.00000          -0.931462          -25.34638
     11       2.00000          -0.901443          -24.52951
     12       2.00000          -0.850774          -23.15073
     13       2.00000          -0.737656          -20.07265
     14       2.00000          -0.656284          -17.85840
     15       2.00000          -0.620964          -16.89729
     16       2.00000          -0.558234          -15.19032
     17       2.00000          -0.525919          -14.31097
     18       2.00000          -0.494330          -13.45141
     19       2.00000          -0.450507          -12.25893
     20       2.00000          -0.431823          -11.75049
     21       2.00000          -0.394914          -10.74615
     22       2.00000          -0.360053           -9.79753
     23       2.00000          -0.349688           -9.51549
     24       2.00000          -0.333829           -9.08394
     25       2.00000          -0.329352           -8.96212
     26       2.00000          -0.219571           -5.97484
     27       2.00000          -0.209672           -5.70546
     28       2.00000          -0.207742           -5.65295
     29       2.00000          -0.171212           -4.65890
     30       0.00000          -0.073139           -1.99023
     31       0.00000          -0.019550           -0.53197
     32       0.00000          -0.015798           -0.42990
     33       0.00000           0.043962            1.19627
     34       0.00000           0.050747            1.38091
     35       0.00000           0.076193            2.07331
     36       0.00000           0.089552            2.43684
     37       0.00000           0.141724            3.85650
     38       0.00000           0.162321            4.41698
     39       0.00000           0.186214            5.06715
     40       0.00000           0.206844            5.62850
     41       0.00000           0.254215            6.91754
     42       0.00000           0.277327            7.54645
     43       0.00000           0.295864            8.05087
     44       0.00000           0.355024            9.66070
     45       0.00000           0.362601            9.86687
     46       0.00000           0.383766           10.44280
     47       0.00000           0.391001           10.63967
     48       0.00000           0.409674           11.14780
     49       0.00000           0.432633           11.77254
     50       0.00000           0.445446           12.12120
     51       0.00000           0.474566           12.91359
     52       0.00000           0.492585           13.40393
     53       0.00000           0.532418           14.48783
     54       0.00000           0.546233           14.86377
     55       0.00000           0.546405           14.86844
     56       0.00000           0.569450           15.49552
     57       0.00000           0.615130           16.73853
     58       0.00000           0.623038           16.95372
     59       0.00000           0.639383           17.39851
     60       0.00000           0.699267           19.02804
     61       0.00000           0.712043           19.37568
     62       0.00000           0.714742           19.44911
     63       0.00000           0.782112           21.28235
     64       0.00000           0.795396           21.64382
     65       0.00000           0.811524           22.08270
     66       0.00000           0.825275           22.45687
     67       0.00000           0.851687           23.17558
     68       0.00000           0.885738           24.10216
     69       0.00000           0.942986           25.65994
     70       0.00000           0.983314           26.75734
     71       0.00000           0.983704           26.76796
     72       0.00000           1.000192           27.21660
     73       0.00000           1.011154           27.51489
     74       0.00000           1.017540           27.68868
     75       0.00000           1.042362           28.36412
     76       0.00000           1.047230           28.49657
     77       0.00000           1.068900           29.08624
     78       0.00000           1.069901           29.11348
     79       0.00000           1.087551           29.59376
     80       0.00000           1.151912           31.34512
     81       0.00000           1.220003           33.19797
     82       0.00000           1.304303           35.49189
     83       0.00000           1.332742           36.26576
     84       0.00000           1.369315           37.26096
     85       0.00000           1.397048           38.01561
     86       0.00000           1.401337           38.13231
     87       0.00000           1.475497           40.15031
     88       0.00000           1.493970           40.65300
     89       0.00000           1.512573           41.15921
     90       0.00000           1.525741           41.51751
     91       0.00000           1.547782           42.11729
     92       0.00000           1.581524           43.03547
     93       0.00000           1.602609           43.60920
     94       0.00000           1.617871           44.02451
     95       0.00000           1.645122           44.76605
     96       0.00000           1.653427           44.99204
     97       0.00000           1.704719           46.38777
     98       0.00000           1.724287           46.92025
     99       0.00000           1.747573           47.55388
    100       0.00000           1.798710           48.94539
    101       0.00000           1.829383           49.78004
    102       0.00000           1.842958           50.14945
    103       0.00000           1.902029           51.75684
    104       0.00000           1.968092           53.55450
    105       0.00000           2.016658           54.87607
    106       0.00000           2.033684           55.33936
    107       0.00000           2.048378           55.73920
    108       0.00000           2.083095           56.68389
    109       0.00000           2.136416           58.13485
    110       0.00000           2.204406           59.98493
    111       0.00000           2.209272           60.11735
    112       0.00000           2.246151           61.12087
    113       0.00000           2.273234           61.85783
    114       0.00000           2.345793           63.83227
    115       0.00000           2.394737           65.16412
    116       0.00000           2.428323           66.07802
    117       0.00000           2.493036           67.83896
    118       0.00000           2.516939           68.48941
    119       0.00000           2.639678           71.82930
    120       0.00000           2.667862           72.59622
    121       0.00000           2.676902           72.84220
    122       0.00000           2.691793           73.24742
    123       0.00000           2.705466           73.61948
    124       0.00000           2.890253           78.64779
    125       0.00000           2.943080           80.08528
    126       0.00000           3.000497           81.64767
    127       0.00000           3.057933           83.21058
    128       0.00000           3.310849           90.09279
    129       0.00000           3.344860           91.01828
    130       0.00000           3.386827           92.16025
    131       0.00000           3.398690           92.48306
    132       0.00000           3.530671           96.07444

  Highest occupied state (VBM) at     -4.65890204 eV
  | Occupation number:      2.00000000

  Lowest unoccupied state (CBM) at    -1.99022676 eV
  | Occupation number:      0.00000000

  Overall HOMO-LUMO gap:      2.66867527 eV.

  Total energy components:
  | Sum of eigenvalues            :        -231.80468396 Ha       -6307.72638419 eV
  | XC energy correction          :         -53.98461329 Ha       -1468.99606944 eV
  | XC potential correction       :          69.40131241 Ha        1888.50579669 eV
  | Free-atom electrostatic energy:        -187.77223603 Ha       -5109.54251294 eV
  | Hartree energy correction     :         -10.30758340 Ha        -280.48361530 eV
  | Entropy correction            :          -0.00000000 Ha          -0.00000000 eV
  | ---------------------------
  | Total energy                  :        -414.46780428 Ha      -11278.24278519 eV
  | Total energy, T -> 0          :        -414.46780428 Ha      -11278.24278519 eV  <-- only rely on this value for actual (periodic) metals
  | Electronic free energy        :        -414.46780428 Ha      -11278.24278519 eV

  Derived energy quantities:
  | Kinetic energy                :         415.60048302 Ha       11309.06454196 eV
  | Electrostatic energy          :        -776.08367401 Ha      -21118.31125770 eV
  | Energy correction for multipole
  | error in Hartree potential    :          -0.02928653 Ha          -0.79692691 eV
  | Sum of eigenvalues per atom                           :        -525.64386535 eV
  | Total energy (T->0) per atom                          :        -939.85356543 eV  <-- only rely on this value for actual (periodic) metals
  | Electronic free energy per atom                       :        -939.85356543 eV

  Self-consistency convergence accuracy:
  | Change of charge density      : 0.5836E+00
  | Change of sum of eigenvalues  : 0.2773E+03 eV
  | Change of total energy        : 0.5058E+01 eV

  End self-consistency iteration #     1       :  max(cpu_time)    wall_clock(cpu1)
  | Time for this iteration                    :       12.517 s          12.528 s
  | Charge density update                      :        3.748 s           3.751 s
  | Density mixing                             :        0.028 s           0.026 s
  | Hartree multipole update                   :        0.044 s           0.044 s
  | Hartree multipole summation                :        4.788 s           4.791 s
  | Integration                                :        3.904 s           3.909 s
  | Solution of K.-S. eqns.                    :        0.004 s           0.005 s
  | Total energy evaluation                    :        0.000 s           0.000 s
------------------------------------------------------------

------------------------------------------------------------
          Begin self-consistency iteration #    2

  Date     :  20120920, Time     :  212920.343
------------------------------------------------------------
  Evaluating new KS density.
  Integration grid: deviation in total charge (<rho> - N_e) =   4.973799E-14
  Pulay mixing of updated and previous charge densities.

  Evaluating partitioned Hartree potential by multipole expansion.
  | Analytical far-field extrapolation by fixed multipoles:
  | Hartree multipole sum: apparent total charge =   0.424736E-04
  Summing up the Hartree potential.
  Time summed over all CPUs for potential: real work        9.492 s, elapsed        9.505 s
  | RMS charge density error from multipole expansion :   0.118062E-01

  Integrating Hamiltonian matrix: batch-based integration.
  Time summed over all CPUs for integration: real work        7.572 s, elapsed        7.787 s

  Updating Kohn-Sham eigenvalues, eigenvectors, occupation numbers, and Fermi level.
  Solving generalized eigenproblem
  Updating Kohn-Sham eigenvalues and eigenfunctions.
  Solving real generalised eigenvalue problem by standard LAPACK (fast)
  Determining occupation numbers for Kohn-Sham eigenstates.
  | Chemical potential (Fermi level) in eV                 : -.39159322E+01
  | Error in electron count due to remaining E_F inaccuracy: 0.00000000E+00
  | Maximum occupation number of highest empty state:  0.00E+00

  Highest occupied state (VBM) at     -6.02210009 eV
  | Occupation number:      2.00000000

  Lowest unoccupied state (CBM) at    -1.80976433 eV
  | Occupation number:      0.00000000

  Overall HOMO-LUMO gap:      4.21233576 eV.

  Total energy components:
  | Sum of eigenvalues            :        -232.54078164 Ha       -6327.75662119 eV
  | XC energy correction          :         -53.79433386 Ha       -1463.81830257 eV
  | XC potential correction       :          69.15194626 Ha        1881.72019866 eV
  | Free-atom electrostatic energy:        -187.77223603 Ha       -5109.54251294 eV
  | Hartree energy correction     :          -9.45884792 Ha        -257.38834768 eV
  | Entropy correction            :          -0.00000000 Ha          -0.00000000 eV
  | ---------------------------
  | Total energy                  :        -414.41425319 Ha      -11276.78558572 eV
  | Total energy, T -> 0          :        -414.41425319 Ha      -11276.78558572 eV  <-- only rely on this value for actual (periodic) metals
  | Electronic free energy        :        -414.41425319 Ha      -11276.78558572 eV

  Derived energy quantities:
  | Kinetic energy                :         413.58236071 Ha       11254.14863963 eV
  | Electrostatic energy          :        -774.20228003 Ha      -21067.11592278 eV
  | Energy correction for multipole
  | error in Hartree potential    :          -0.03264935 Ha          -0.88843401 eV
  | Sum of eigenvalues per atom                           :        -527.31305177 eV
  | Total energy (T->0) per atom                          :        -939.73213214 eV  <-- only rely on this value for actual (periodic) metals
  | Electronic free energy per atom                       :        -939.73213214 eV

  Self-consistency convergence accuracy:
  | Change of charge density      : 0.4450E+00
  | Change of sum of eigenvalues  : -.2003E+02 eV
  | Change of total energy        : 0.1457E+01 eV

  End self-consistency iteration #     2       :  max(cpu_time)    wall_clock(cpu1)
  | Time for this iteration                    :       12.505 s          12.517 s
  | Charge density update                      :        3.780 s           3.784 s
  | Density mixing                             :        0.036 s           0.038 s
  | Hartree multipole update                   :        0.040 s           0.040 s
  | Hartree multipole summation                :        4.752 s           4.755 s
  | Integration                                :        3.888 s           3.893 s
  | Solution of K.-S. eqns.                    :        0.004 s           0.005 s
  | Total energy evaluation                    :        0.000 s           0.000 s
------------------------------------------------------------

------------------------------------------------------------
          Begin self-consistency iteration #    3

  Date     :  20120920, Time     :  212932.860
------------------------------------------------------------
  Evaluating new KS density.
  Integration grid: deviation in total charge (<rho> - N_e) =  -8.526513E-14
  Pulay mixing of updated and previous charge densities.

  Evaluating partitioned Hartree potential by multipole expansion.
  | Analytical far-field extrapolation by fixed multipoles:
  | Hartree multipole sum: apparent total charge =   0.508158E-04
  Summing up the Hartree potential.
  Time summed over all CPUs for potential: real work        9.282 s, elapsed        9.484 s
  | RMS charge density error from multipole expansion :   0.136445E-01

  Integrating Hamiltonian matrix: batch-based integration.
  Time summed over all CPUs for integration: real work        7.275 s, elapsed        7.312 s

  Updating Kohn-Sham eigenvalues, eigenvectors, occupation numbers, and Fermi level.
  Solving generalized eigenproblem
  Updating Kohn-Sham eigenvalues and eigenfunctions.
  Solving real generalised eigenvalue problem by standard LAPACK (fast)
  Determining occupation numbers for Kohn-Sham eigenstates.
  | Chemical potential (Fermi level) in eV                 : -.38740856E+01
  | Error in electron count due to remaining E_F inaccuracy: 0.00000000E+00
  | Maximum occupation number of highest empty state:  0.00E+00

  Highest occupied state (VBM) at     -5.48451943 eV
  | Occupation number:      2.00000000

  Lowest unoccupied state (CBM) at    -2.26365177 eV
  | Occupation number:      0.00000000

  Overall HOMO-LUMO gap:      3.22086766 eV.

  Total energy components:
  | Sum of eigenvalues            :        -233.04546276 Ha       -6341.48969323 eV
  | XC energy correction          :         -53.81263195 Ha       -1464.31621898 eV
  | XC potential correction       :          69.17502232 Ha        1882.34813005 eV
  | Free-atom electrostatic energy:        -187.77223603 Ha       -5109.54251294 eV
  | Hartree energy correction     :          -8.94545050 Ha        -243.41809306 eV
  | Entropy correction            :          -0.00000000 Ha          -0.00000000 eV
  | ---------------------------
  | Total energy                  :        -414.40075892 Ha      -11276.41838816 eV
  | Total energy, T -> 0          :        -414.40075892 Ha      -11276.41838816 eV  <-- only rely on this value for actual (periodic) metals
  | Electronic free energy        :        -414.40075892 Ha      -11276.41838816 eV

  Derived energy quantities:
  | Kinetic energy                :         412.82253369 Ha       11233.47269452 eV
  | Electrostatic energy          :        -773.41066066 Ha      -21045.57486371 eV
  | Energy correction for multipole
  | error in Hartree potential    :          -0.03646586 Ha          -0.99228643 eV
  | Sum of eigenvalues per atom                           :        -528.45747444 eV
  | Total energy (T->0) per atom                          :        -939.70153235 eV  <-- only rely on this value for actual (periodic) metals
  | Electronic free energy per atom                       :        -939.70153235 eV

  Self-consistency convergence accuracy:
  | Change of charge density      : 0.1857E+00
  | Change of sum of eigenvalues  : -.1373E+02 eV
  | Change of total energy        : 0.3672E+00 eV

  End self-consistency iteration #     3       :  max(cpu_time)    wall_clock(cpu1)
  | Time for this iteration                    :       12.153 s          12.167 s
  | Charge density update                      :        3.656 s           3.661 s
  | Density mixing                             :        0.052 s           0.052 s
  | Hartree multipole update                   :        0.044 s           0.047 s
  | Hartree multipole summation                :        4.740 s           4.744 s
  | Integration                                :        3.652 s           3.656 s
  | Solution of K.-S. eqns.                    :        0.008 s           0.005 s
  | Total energy evaluation                    :        0.000 s           0.000 s
------------------------------------------------------------

------------------------------------------------------------
          Begin self-consistency iteration #    4

  Date     :  20120920, Time     :  212945.027
------------------------------------------------------------
  Evaluating new KS density.
  Integration grid: deviation in total charge (<rho> - N_e) =   9.237056E-14
  Pulay mixing of updated and previous charge densities.

  Evaluating partitioned Hartree potential by multipole expansion.
  | Analytical far-field extrapolation by fixed multipoles:
  | Hartree multipole sum: apparent total charge =   0.561219E-04
  Summing up the Hartree potential.
  Time summed over all CPUs for potential: real work        9.287 s, elapsed        9.487 s
  | RMS charge density error from multipole expansion :   0.149720E-01

  Integrating Hamiltonian matrix: batch-based integration.
  Time summed over all CPUs for integration: real work        7.314 s, elapsed        7.367 s

  Updating Kohn-Sham eigenvalues, eigenvectors, occupation numbers, and Fermi level.
  Solving generalized eigenproblem
  Updating Kohn-Sham eigenvalues and eigenfunctions.
  Solving real generalised eigenvalue problem by standard LAPACK (fast)
  Determining occupation numbers for Kohn-Sham eigenstates.
  | Chemical potential (Fermi level) in eV                 : -.38820344E+01
  | Error in electron count due to remaining E_F inaccuracy: 0.00000000E+00
  | Maximum occupation number of highest empty state:  0.00E+00

  Highest occupied state (VBM) at     -5.73423029 eV
  | Occupation number:      2.00000000

  Lowest unoccupied state (CBM) at    -2.02983859 eV
  | Occupation number:      0.00000000

  Overall HOMO-LUMO gap:      3.70439170 eV.

  Total energy components:
  | Sum of eigenvalues            :        -232.62092797 Ha       -6329.93751380 eV
  | XC energy correction          :         -53.83105921 Ha       -1464.81765024 eV
  | XC potential correction       :          69.19883946 Ha        1882.99622750 eV
  | Free-atom electrostatic energy:        -187.77223603 Ha       -5109.54251294 eV
  | Hartree energy correction     :          -9.36723676 Ha        -254.89548120 eV
  | Entropy correction            :          -0.00000000 Ha          -0.00000000 eV
  | ---------------------------
  | Total energy                  :        -414.39262051 Ha      -11276.19693068 eV
  | Total energy, T -> 0          :        -414.39262051 Ha      -11276.19693068 eV  <-- only rely on this value for actual (periodic) metals
  | Electronic free energy        :        -414.39262051 Ha      -11276.19693068 eV

  Derived energy quantities:
  | Kinetic energy                :         412.38554538 Ha       11221.58163745 eV
  | Electrostatic energy          :        -772.94710667 Ha      -21032.96091789 eV
  | Energy correction for multipole
  | error in Hartree potential    :          -0.03937172 Ha          -1.07135901 eV
  | Sum of eigenvalues per atom                           :        -527.49479282 eV
  | Total energy (T->0) per atom                          :        -939.68307756 eV  <-- only rely on this value for actual (periodic) metals
  | Electronic free energy per atom                       :        -939.68307756 eV

  Self-consistency convergence accuracy:
  | Change of charge density      : 0.1301E+00
  | Change of sum of eigenvalues  : 0.1155E+02 eV
  | Change of total energy        : 0.2215E+00 eV

  End self-consistency iteration #     4       :  max(cpu_time)    wall_clock(cpu1)
  | Time for this iteration                    :       11.973 s          11.985 s
  | Charge density update                      :        3.444 s           3.446 s
  | Density mixing                             :        0.064 s           0.064 s
  | Hartree multipole update                   :        0.040 s           0.039 s
  | Hartree multipole summation                :        4.740 s           4.746 s
  | Integration                                :        3.680 s           3.684 s
  | Solution of K.-S. eqns.                    :        0.008 s           0.005 s
  | Total energy evaluation                    :        0.000 s           0.000 s
------------------------------------------------------------

------------------------------------------------------------
          Begin self-consistency iteration #    5

  Date     :  20120920, Time     :  212957.013
------------------------------------------------------------
  Evaluating new KS density.
  Integration grid: deviation in total charge (<rho> - N_e) =  -9.237056E-14
  Pulay mixing of updated and previous charge densities.

  Evaluating partitioned Hartree potential by multipole expansion.
  | Analytical far-field extrapolation by fixed multipoles:
  | Hartree multipole sum: apparent total charge =   0.569472E-04
  Summing up the Hartree potential.
  Time summed over all CPUs for potential: real work        9.303 s, elapsed        9.517 s
  | RMS charge density error from multipole expansion :   0.151613E-01

  Integrating Hamiltonian matrix: batch-based integration.
  Time summed over all CPUs for integration: real work        7.250 s, elapsed        7.255 s

  Updating Kohn-Sham eigenvalues, eigenvectors, occupation numbers, and Fermi level.
  Solving generalized eigenproblem
  Updating Kohn-Sham eigenvalues and eigenfunctions.
  Solving real generalised eigenvalue problem by standard LAPACK (fast)
  Determining occupation numbers for Kohn-Sham eigenstates.
  | Chemical potential (Fermi level) in eV                 : -.38290632E+01
  | Error in electron count due to remaining E_F inaccuracy: 0.00000000E+00
  | Maximum occupation number of highest empty state:  0.00E+00

  Highest occupied state (VBM) at     -5.69767049 eV
  | Occupation number:      2.00000000

  Lowest unoccupied state (CBM) at    -1.96045582 eV
  | Occupation number:      0.00000000

  Overall HOMO-LUMO gap:      3.73721467 eV.

  Total energy components:
  | Sum of eigenvalues            :        -232.56517453 Ha       -6328.42038534 eV
  | XC energy correction          :         -53.82838637 Ha       -1464.74491850 eV
  | XC potential correction       :          69.19541420 Ha        1882.90302137 eV
  | Free-atom electrostatic energy:        -187.77223603 Ha       -5109.54251294 eV
  | Hartree energy correction     :          -9.42212383 Ha        -256.38903439 eV
  | Entropy correction            :          -0.00000000 Ha          -0.00000000 eV
  | ---------------------------
  | Total energy                  :        -414.39250656 Ha      -11276.19382980 eV
  | Total energy, T -> 0          :        -414.39250656 Ha      -11276.19382980 eV  <-- only rely on this value for actual (periodic) metals
  | Electronic free energy        :        -414.39250656 Ha      -11276.19382980 eV

  Derived energy quantities:
  | Kinetic energy                :         412.29288362 Ha       11219.06018273 eV
  | Electrostatic energy          :        -772.85700380 Ha      -21030.50909403 eV
  | Energy correction for multipole
  | error in Hartree potential    :          -0.03973647 Ha          -1.08128441 eV
  | Sum of eigenvalues per atom                           :        -527.36836545 eV
  | Total energy (T->0) per atom                          :        -939.68281915 eV  <-- only rely on this value for actual (periodic) metals
  | Electronic free energy per atom                       :        -939.68281915 eV

  Self-consistency convergence accuracy:
  | Change of charge density      : 0.1801E-01
  | Change of sum of eigenvalues  : 0.1517E+01 eV
  | Change of total energy        : 0.3101E-02 eV

  End self-consistency iteration #     5       :  max(cpu_time)    wall_clock(cpu1)
  | Time for this iteration                    :       11.997 s          12.011 s
  | Charge density update                      :        3.492 s           3.496 s
  | Density mixing                             :        0.076 s           0.077 s
  | Hartree multipole update                   :        0.044 s           0.043 s
  | Hartree multipole summation                :        4.756 s           4.760 s
  | Integration                                :        3.624 s           3.627 s
  | Solution of K.-S. eqns.                    :        0.008 s           0.005 s
[...]
  Total XC Energy     :        -53.826198030 Ha          -1464.685370767 eV
  LDA X and C from self-consistent density 
  X Energy LDA        :        -47.069527997 Ha          -1280.827024572 eV
  C Energy LDA        :         -3.867843338 Ha           -105.249372268 eV
  ------------------------------------ 
  End decomposition of the XC Energy 
  ------------------------------------ 

 --------------------------------------------
  Constructing auxiliary basis (full product) ...

  Product basis:
  | charge radius: extent of product basis function
  | field radius: extent of its Coulomb potential
  | Species   l  charge radius    field radius  multipol momen
  |    O      0     1.898511 A      1.898511 A    8.6632E-17 a.u.
  |    O      1     2.018177 A      2.018177 A   -2.0158E-17 a.u.
  |    O      0     2.043000 A      2.043000 A   -5.2036E-17 a.u.
  |    O      0     2.577176 A      2.577176 A    8.1757E-17 a.u.
  |    O      1     2.577176 A      2.577176 A    1.0505E-17 a.u.
  |    O      3     2.577176 A      2.577176 A    1.5257E-16 a.u.
  |    O      3     2.608875 A      2.608875 A    8.9488E-18 a.u.
  |    O      2     2.640965 A      2.640965 A   -1.3057E-17 a.u.
  |    O      0     3.764702 A      3.764702 A    5.7509E-17 a.u.
  |    O      1     3.905335 A      3.905335 A   -2.1380E-16 a.u.
  |    O      1     3.905335 A      3.905335 A   -1.6749E-17 a.u.
  |    O      2     4.001998 A      4.001998 A   -5.1479E-16 a.u.
  |    O      2     4.051222 A      4.051222 A   -7.3859E-16 a.u.
  |    O      4     2.093567 A    1.8915E+02 A      0.464268 a.u.
  |    O      3     2.640965 A    1.0378E+03 A      1.177223 a.u.
  |    O      2     4.101052 A    1.4442E+04 A      1.617496 a.u.
  |    O      1     3.953371 A    1.5995E+06 A      0.727023 a.u.
  |    O      0     3.718959 A    2.8977E+12 A      0.435758 a.u.
  |    N      0     2.196414 A      2.196414 A    1.3231E-16 a.u.
  |    N      1     2.334858 A      2.334858 A   -2.8553E-17 a.u.
  |    N      0     2.363576 A      2.363576 A   -1.3450E-16 a.u.
  |    N      0     2.874204 A      2.874204 A   -2.6981E-17 a.u.
  |    N      1     2.945344 A      2.945344 A    4.3036E-17 a.u.
  |    N      0     2.981572 A      2.981572 A    1.0098E-17 a.u.
  |    N      2     2.981572 A      2.981572 A    6.2740E-17 a.u.
  |    N      3     3.055370 A      3.055370 A   -3.3322E-16 a.u.
  |    N      3     3.092951 A      3.092951 A   -7.0212E-16 a.u.
  |    N      0     4.355438 A      4.355438 A   -8.4330E-17 a.u.
  |    N      1     4.409010 A      4.409010 A   -2.8042E-16 a.u.
  |    N      1     4.463241 A      4.463241 A   -8.8138E-17 a.u.
  |    N      2     4.518138 A      4.518138 A    1.5291E-16 a.u.
  |    N      2     4.518138 A      4.518138 A    2.7791E-16 a.u.
  |    N      2     4.518138 A      4.518138 A   -2.1117E-16 a.u.
  |    N      4     2.512557 A    2.2360E+02 A      1.071854 a.u.
  |    N      3     3.130994 A    1.2152E+03 A      2.212646 a.u.
  |    N      2     4.629968 A    1.6294E+04 A      2.323294 a.u.
  |    N      1     4.518138 A    1.7953E+06 A      0.915913 a.u.
  |    N      0     4.302517 A    3.1270E+12 A      0.470243 a.u.
  |    C      0     2.625908 A      2.625908 A   -7.8270E-17 a.u.
  |    C      0     2.791423 A      2.791423 A   -3.8359E-17 a.u.
  |    C      1     2.791423 A      2.791423 A   -1.2664E-16 a.u.
  |    C      0     3.436235 A      3.436235 A    9.5446E-17 a.u.
  |    C      1     3.521286 A      3.521286 A    6.2208E-17 a.u.
  |    C      0     3.564598 A      3.564598 A   -1.3615E-16 a.u.
  |    C      2     3.608443 A      3.608443 A    1.6581E-16 a.u.
  |    C      3     3.697756 A      3.697756 A   -1.6904E-15 a.u.
  |    C      3     3.743239 A      3.743239 A    1.0194E-15 a.u.
  |    C      0     5.143845 A      5.143845 A   -8.7988E-17 a.u.
  |    C      1     5.271162 A      5.271162 A   -2.0416E-16 a.u.
  |    C      1     5.335997 A      5.335997 A   -2.5985E-16 a.u.
  |    C      2     5.401630 A      5.401630 A   -3.5333E-16 a.u.
  |    C      2     5.401630 A      5.401630 A   -9.2506E-16 a.u.
  |    C      2     5.401630 A      5.401630 A    9.4743E-16 a.u.
  |    C      4     3.040818 A    2.6718E+02 A      2.611074 a.u.
  |    C      3     3.789281 A    1.4432E+03 A      4.402197 a.u.
  |    C      2     5.535327 A    1.9029E+04 A      3.700382 a.u.
  |    C      1     5.335997 A    2.0643E+06 A      1.210968 a.u.
  |    C      0     5.081344 A    3.4128E+12 A      0.513216 a.u.
  |    H      1     3.215356 A      3.215356 A    4.6346E-17 a.u.
  |    H      0     3.815562 A      3.815562 A    1.8667E-16 a.u.
  |    H      0     5.781930 A      5.781930 A    2.0489E-16 a.u.
  |    H      2     2.517934 A    8.6084E+03 A      0.342576 a.u.
  |    H      1     3.254905 A    1.2873E+06 A      0.470947 a.u.
  |    H      0     5.711676 A    3.4615E+12 A      0.520541 a.u.

  | Shrink_full_auxil_basis : there are       64  radial auxiliary wave functions
                            accepted and      49 rejected.
  | Shrink_full_auxil_basis : there are totally     652 partial auxiliary wave functions.

  | Number of product basis functions per thread :   326
  | Minimal requirement for computer memories :           0.046 Gbs

  Basis pair condensation :      8778  -->       8753

 ----------------------------------------------------
  Integrating the 3-basis-function Coulomb matrix ...
  | i_atom:            1
  | i_atom:            2
  | i_atom:            3
  | i_atom:            4
  | i_atom:            5
  | i_atom:            6
  | i_atom:            7
  | i_atom:            8
  | i_atom:            9
  | i_atom:           10
  | i_atom:           11
  | i_atom:           12
  Integrating the Coulomb interaction matrix for auxiliary basis functions (by atoms)

  SBT integration errors (all should be 'small'):
  large logFT aliasing -> increase N/lnrange
  large SBT aliasing -> decrease lnk0 & increase lnk0+lnrange
  large SBT ringing -> decrease lnr0 & increase lnr0+lnrange
  |            El't  L: logFT-al.   small-k   large-k   small-r   large-r
  | Errors for    O  0:  9.08E-16  2.21E-46  5.82-103  1.20E-47  0.00E+00
  | Errors for    O  1:  1.06E-15  2.00E-57  1.37E-98  7.90E-64  0.00E+00
  | Errors for    O  0:  2.13E-15  1.21E-45  7.70-108  6.83E-48  0.00E+00
  | Errors for    O  0:  8.81E-16  3.59E-45  0.00E+00  3.20E-48  0.00E+00
  | Errors for    O  1:  8.28E-15  1.34E-56  1.63E-89  4.68E-64  0.00E+00
  | Errors for    O  3:  9.70E-14  7.32E-58  0.00E+00  9.71E-98  0.00E+00
  | Errors for    O  3:  3.41E-13  1.09E-57  3.03E-58  2.90E-97  0.00E+00
  | Errors for    O  2:  1.92E-14  3.45E-68  0.00E+00  7.72E-81  0.00E+00
  | Errors for    O  0:  1.09E-15  9.60E-45  6.68-110  6.37E-50  0.00E+00
  | Errors for    O  1:  1.23E-14  6.30E-56  5.88E-91  1.65E-64  0.00E+00
  | Errors for    O  1:  4.42E-13  5.69E-56  1.97E-34  1.09E-64  0.00E+00
  | Errors for    O  2:  1.11E-13  2.08E-67  2.55E-95  1.07E-79  0.00E+00
  | Errors for    O  2:  2.79E-14  3.07E-67  0.00E+00  7.42E-81  0.00E+00
  | Errors for    O  4:  9.68E-14  1.32E-46  0.00E+00  5.33-115  0.00E+00
  | Errors for    O  3:  5.19E-13  1.68E-34  1.16E-53  1.38E-97  0.00E+00
  | Errors for    O  2:  3.55E-14  1.60E-44  2.04E-63  3.55E-80  0.00E+00
  | Errors for    O  1:  2.12E-13  1.55E-33  4.19-109  1.48E-65  0.00E+00
  | Errors for    O  0:  6.28E-16  6.71E-23  1.89E-88  1.46E-49  0.00E+00
  | Errors for    N  0:  7.09E-16  3.18E-46  1.34-100  8.47E-48  0.00E+00
  | Errors for    N  1:  2.16E-15  3.34E-57  2.83E-98  4.80E-64  0.00E+00
  | Errors for    N  0:  3.75E-15  1.77E-45  1.28-109  4.66E-48  0.00E+00
  | Errors for    N  0:  1.26E-14  1.31E-45  3.02-122  3.93E-47  0.00E+00
  | Errors for    N  1:  2.05E-14  2.23E-56  1.22E-89  2.78E-64  0.00E+00
  | Errors for    N  0:  2.66E-14  5.20E-45  4.47-130  1.68E-47  0.00E+00
  | Errors for    N  2:  6.83E-15  6.44E-68  0.00E+00  3.93E-81  0.00E+00
  | Errors for    N  3:  2.18E-14  1.87E-57  0.00E+00  3.81E-98  0.00E+00
  | Errors for    N  3:  3.31E-13  3.08E-57  5.77E-59  1.07E-97  0.00E+00
  | Errors for    N  0:  4.50E-14  1.40E-44  1.26-123  8.44E-48  0.00E+00
  | Errors for    N  1:  4.22E-14  1.02E-55  1.93-111  9.09E-65  0.00E+00
  | Errors for    N  1:  3.11E-13  1.07E-55  5.78-148  2.99E-65  0.00E+00
  | Errors for    N  2:  1.35E-14  5.40E-67  0.00E+00  3.90E-81  0.00E+00
  | Errors for    N  2:  6.99E-15  3.67E-67  1.06E-42  5.59E-80  0.00E+00
  | Errors for    N  2:  1.21E-13  3.75E-67  2.66-220  1.47E-79  0.00E+00
  | Errors for    N  4:  6.57E-14  3.05E-46  0.00E+00  1.59-115  0.00E+00
  | Errors for    N  3:  3.85E-13  3.15E-34  4.31E-58  5.28E-98  0.00E+00
  | Errors for    N  2:  5.07E-14  2.30E-44  2.07E-86  3.06E-80  0.00E+00
  | Errors for    N  1:  1.49E-13  1.96E-33  5.37-110  2.06E-65  0.00E+00
  | Errors for    N  0:  1.26E-14  7.24E-23  6.26E-93  2.09E-48  0.00E+00
  | Errors for    C  0:  2.04E-16  4.87E-46  9.49-105  5.63E-48  0.00E+00
  | Errors for    C  0:  1.09E-15  2.76E-45  1.42-107  3.00E-48  0.00E+00
  | Errors for    C  1:  5.50E-16  6.29E-57  1.66E-98  2.64E-64  0.00E+00
  | Errors for    C  0:  7.48E-15  2.00E-45  4.04-108  2.57E-47  0.00E+00
  | Errors for    C  1:  2.90E-15  4.27E-56  1.44E-90  1.49E-64  0.00E+00
  | Errors for    C  0:  1.60E-14  8.14E-45  1.28-104  1.09E-47  0.00E+00
  | Errors for    C  2:  1.48E-14  1.53E-67  0.00E+00  1.66E-81  0.00E+00
  | Errors for    C  3:  1.17E-13  5.46E-57  0.00E+00  1.30E-98  0.00E+00
  | Errors for    C  3:  4.97E-13  9.14E-57  8.54E-59  3.64E-98  0.00E+00
  | Errors for    C  0:  2.04E-14  2.17E-44  1.97-113  5.53E-48  0.00E+00
  | Errors for    C  1:  6.91E-15  1.93E-55  1.02E-62  4.69E-65  0.00E+00
  | Errors for    C  1:  5.54E-13  2.09E-55  7.03-116  1.45E-65  0.00E+00
  | Errors for    C  2:  2.51E-14  1.25E-66  0.00E+00  1.67E-81  0.00E+00
  | Errors for    C  2:  8.82E-14  8.21E-67  2.22-110  2.49E-80  0.00E+00
  | Errors for    C  2:  4.29E-14  9.21E-67  7.68-230  6.07E-80  0.00E+00
  | Errors for    C  4:  1.21E-13  7.43E-46  0.00E+00  4.40-116  0.00E+00
  | Errors for    C  3:  7.52E-13  6.27E-34  9.06E-56  1.81E-98  0.00E+00
  | Errors for    C  2:  4.55E-14  3.66E-44  5.67-135  1.35E-80  0.00E+00
  | Errors for    C  1:  3.08E-13  2.59E-33  7.60-103  1.03E-65  0.00E+00
  | Errors for    C  0:  6.75E-15  7.90E-23  5.43E-94  1.35E-48  0.00E+00
  | Errors for    H  1:  1.70E-14  2.87E-56  1.44-277  8.46E-66  0.00E+00
  | Errors for    H  0:  2.01E-15  6.26E-45  3.11-238  1.83E-49  0.00E+00
  | Errors for    H  0:  2.75E-15  2.31E-44  1.41-245  1.93E-49  0.00E+00
  | Errors for    H  2:  4.55E-15  3.39E-45  0.00E+00  1.18E-82  0.00E+00
  | Errors for    H  1:  1.90E-14  1.01E-33  1.12-274  5.88E-66  0.00E+00
  | Errors for    H  0:  4.71E-16  8.01E-23  2.62-232  6.02E-50  0.00E+00

  Atomic logSBT for 2-center Coulomb matrix    :  max(cpu_time)    wall_clock(cpu1)
  | Multiplication with kernel                 :        0.400 s           0.353 s
  | Main matrix multiplication                 :        0.608 s           0.596 s
  | Analytic angular integration               :        0.060 s           0.024 s
  | Kernel construction                        :        0.144 s           0.098 s
  | Overall 2-center overlap time              :        1.352 s           1.166 s

  Difference of Coulomb matrix to its transposed:  3.3307E-16
  Task     0: Eigenvalues of the Coulomb matrix range from    8.2850E+00 to    5.9868E-06.
  Task     0: Using      651   eigenvalues out of rank      652   Coulomb matrix (auxiliary basis).
  Task     0: Still using eigenvalue     1.1423E-05 while cutting     5.9868E-06 in Coulomb matrix.

  Multiplying V^-0.5 x ovlp_3fn (1d-scalapack)

  End of correlation preparation               :  max(cpu_time)    wall_clock(cpu1)
  | Product basis setup: Total time            :      148.093 s         148.251 s
  | Product basis: | 3-center integrations     :      145.233 s         145.411 s
  | Product basis: | 2-center integrations     :        1.812 s           1.817 s
  | Product basis: | 2-center linear algebra   :        0.588 s           0.589 s
  | Product basis: | 3-center x 2-center       :        0.372 s           0.376 s

--------------------------------------------
          RPA total energy calculation starts ...

  The first valence state in the frozen-core algorithm :    9
  The ovlp_3KS matrix takes another     13 MiB x      2 procs =       0.025 GiB.


  Initialising transformed Gauss-Legendre time and frequency grids
  Number of freuency points for self energy.....: 40
  Number of frequency points....................: 40

  Starts to calculate the exchange energy ...

  Integrating the xc potential matrix  for basis functions ...

  Starts to calculate the single excitation correction ...

  | Single excitation contribution to the correlation energy:  -2.99566613 eV
  | Renormalized single excitation contribution (diag) to the correlation energy:  -1.82128955  eV


  Starts to calculate the renormalized single excitation (full) correction ...
  Diagonalizing the RSE-HF-Occ matrix  and checking for singularities.

  Diagonalizing the RSE-HF-Unocc matrix  and checking for singularities.


  | Renormalized single excitation contribution (full) to the correlation energy:  -1.78987166  eV


 ----------------------------------- ------------------------------------
  Start to calculate the RPA correlation energy  ... 
  HOMO and first non-fully-occupied orbitals:   29   30

 | i_freq    1            0.000441
 | i_freq    2            0.002329
 | i_freq    3            0.005750
 | i_freq    4            0.010747
 | i_freq    5            0.017381
 | i_freq    6            0.025735
 | i_freq    7            0.035917
 | i_freq    8            0.048062
 | i_freq    9            0.062333
 | i_freq   10            0.078932
 | i_freq   11            0.098102
 | i_freq   12            0.120134
 | i_freq   13            0.145383
 | i_freq   14            0.174274
 | i_freq   15            0.207324
 | i_freq   16            0.245160
 | i_freq   17            0.288549
 | i_freq   18            0.338436
 | i_freq   19            0.395990
 | i_freq   20            0.462675
 | i_freq   21            0.540336
 | i_freq   22            0.631329
 | i_freq   23            0.738693
 | i_freq   24            0.866404
 | i_freq   25            1.019743
 | i_freq   26            1.205842
 | i_freq   27            1.434520
 | i_freq   28            1.719594
 | i_freq   29            2.081004
 | i_freq   30            2.548378
 | i_freq   31            3.167279
 | i_freq   32            4.010715
 | i_freq   33            5.201652
 | i_freq   34            6.960432
 | i_freq   35            9.714380
 | i_freq   36           14.383789
 | i_freq   37           23.262462
 | i_freq   38           43.475277
 | i_freq   39          107.331113
 | i_freq   40          566.943404

 -----------------------------------------------------------------------------
    RPA correlation energy :          -1.79011593  Ha,       -48.71153279  eV

 --------------------------------------------------------------------
    Exact exchange energy             :          -51.85742387 Ha,       -1411.11230012 eV
    DFT/HF exchange energy            :          -47.06952800 Ha,       -1280.82702457 eV

    DFT/HF total energy               :         -414.39246136 Ha,      -11276.19259997 eV
    Exchange-only total energy        :         -412.42368720 Ha,      -11222.61952932 eV
    RPA total energy                  :         -414.21380313 Ha,      -11271.33106211 eV

    RPA+SE total energy               :         -414.32389183 Ha,      -11274.32672823 eV
    RPA+rSE (diag) total energy       :         -414.28073429 Ha,      -11273.15235166 eV
    RPA+rSE (full) total energy       :         -414.27957970 Ha,      -11273.12093376 eV

    RPA+ total energy                 :         -413.08918786 Ha,      -11240.72872361 eV

 ----------------------------------------------------------------------------


------------------------------------------------------------------------------
  Final output of selected total energy values:

  The following output summarizes some interesting total energy values
  at the end of a run (AFTER all relaxation, molecular dynamics, etc.).

  | Total energy of the DFT / Hartree-Fock s.c.f. calculation      :         -11276.192599966 eV
  | Final zero-broadening corrected energy (caution - metals only) :         -11276.192599966 eV
  | Total energy after the post-s.c.f. correlation calculation     :         -11271.331062106 eV
  | For reference only, the value of 1 Hartree used in FHI-aims is :             27.211384500 eV

  Before relying on these values, please be sure to understand exactly which
  total energy value is referred to by a given number. Different objects may
  all carry the same name 'total energy'. Definitions:

  Total energy of the DFT / Hartree-Fock s.c.f. calculation:
  | Note that this energy does not include ANY quantities calculated after the
  | s.c.f. cycle, in particular not ANY RPA, MP2, etc. many-body perturbation terms.

  Final zero-broadening corrected energy:
  | For metallic systems only, a broadening of the occupation numbers at the Fermi
  | level can be extrapolated back to zero broadening by an electron-gas inspired
  | formula. For all systems that are not real metals, this value can be
  | meaningless and should be avoided.

  Total energy of the post-s.c.f. correlation calculation        :
  | The actual meaning of this energy depends on the setting for the 'total_energy_method'
  | keyword (MP2, RPA, rPT2, etc). If not sure, compare to the results listed above.

------------------------------------------------------------------------------

------------------------------------------------------------
          Leaving FHI-aims.
          Date     :  20120920, Time     :  213442.702

          Computational steps:
          | Number of self-consistency cycles          :           14

          Detailed time accounting                     :  max(cpu_time)    wall_clock(cpu1)
          | Total time                                 :      345.258 s         345.626 s
          | Preparation time                           :        0.384 s           0.399 s
          | Grid partitioning                          :        0.972 s           0.972 s
          | Preloading free-atom quantities on grid    :        0.208 s           0.207 s
          | Free-atom superposition energy             :        0.892 s           0.890 s
          | Total time for integrations                :       59.368 s          59.432 s
          | Product basis setup: Total time            :      148.093 s         148.251 s
          | Product basis: | 3-center integrations     :      145.233 s         145.411 s
          | Product basis: | 2-center integrations     :        1.812 s           1.817 s
          | Product basis: | 2-center linear algebra   :        0.588 s           0.589 s
          | Product basis: | 3-center x 2-center       :        0.372 s           0.376 s
          | Transforming ovlp_3fn to ovlp_3KS          :        0.216 s           0.219 s
          | Total time for evaluating polarisability   :        3.024 s           3.020 s
          | Total time for RPA corr. energy            :        0.692 s           0.691 s
          | Total time for solution of K.-S. equations :        0.112 s           0.103 s
          | Total time for density update              :       52.247 s          52.288 s
          | Total time for mixing                      :        1.368 s           1.376 s
          | Total time for Hartree multipole update    :        0.624 s           0.616 s
          | Total time for Hartree multipole sum       :       69.536 s          69.595 s
          | Total time for total energy evaluation     :        0.008 s           0.005 s

          Have a nice day.
------------------------------------------------------------
